nqpoint: 510    
npath: 10     
segment_nqpoint:
- 51
- 51
- 51
- 51
- 51
- 51
- 51
- 51
- 51
- 51
labels:
- [ '$\Gamma$', '$\mathrm{Z}$' ]
- [ '$\mathrm{Z}$', '$\mathrm{D}$' ]
- [ '$\mathrm{D}$', '$\mathrm{B}$' ]
- [ '$\mathrm{B}$', '$\Gamma$' ]
- [ '$\Gamma$', '$\mathrm{A}$' ]
- [ '$\mathrm{A}$', '$\mathrm{E}$' ]
- [ '$\mathrm{E}$', '$\mathrm{Z}$' ]
- [ '$\mathrm{Z}$', '$\mathrm{C_2}$' ]
- [ '$\mathrm{C_2}$', '$\mathrm{Y_2}$' ]
- [ '$\mathrm{Y_2}$', '$\Gamma$' ]
reciprocal_lattice:
- [   0.22641707,  -0.00000000,  -0.06843119 ] # a*
- [   0.00000000,  -0.14518885,  -0.00000000 ] # b*
- [   0.00019247,  -0.00000000,  -0.13130127 ] # c*
natom: 12     
lattice:
- [     4.418585750000000,     0.000000000000000,     0.006476890000000 ] # a
- [     0.000000000000000,    -6.887581050000001,     0.000000000000000 ] # b
- [    -2.302864910000001,     0.000000000000000,    -7.619448320000002 ] # c
points:
- symbol: Se # 1
  coordinates: [  0.164417600000000,  0.751722360000000,  0.843163490000000 ]
  mass: 78.960000
- symbol: Se # 2
  coordinates: [  0.835582470000000,  0.251722360000000,  0.656836630000000 ]
  mass: 78.960000
- symbol: Se # 3
  coordinates: [  0.835582470000000,  0.248277640000000,  0.156836630000000 ]
  mass: 78.960000
- symbol: Se # 4
  coordinates: [  0.164417600000000,  0.748277640000000,  0.343163490000000 ]
  mass: 78.960000
- symbol: Ag # 5
  coordinates: [  0.427180470000000,  0.977554810000000,  0.659931640000000 ]
  mass: 107.868200
- symbol: Ag # 6
  coordinates: [  0.572819610000000,  0.477554810000000,  0.840068480000000 ]
  mass: 107.868200
- symbol: Ag # 7
  coordinates: [  0.572819610000000,  0.022445190000000,  0.340068480000000 ]
  mass: 107.868200
- symbol: Ag # 8
  coordinates: [  0.427180470000000,  0.522445190000000,  0.159931640000000 ]
  mass: 107.868200
- symbol: Ag # 9
  coordinates: [  0.757301460000000,  0.639255010000000,  0.532960990000000 ]
  mass: 107.868200
- symbol: Ag # 10
  coordinates: [  0.242698610000000,  0.139255010000000,  0.967039130000000 ]
  mass: 107.868200
- symbol: Ag # 11
  coordinates: [  0.242698610000000,  0.360744990000000,  0.467039130000000 ]
  mass: 107.868200
- symbol: Ag # 12
  coordinates: [  0.757301460000000,  0.860744990000000,  0.032960990000000 ]
  mass: 107.868200
supercell_matrix:
- [   16,    0,   -4 ]
- [    0,   -4,    0 ]
- [    0,    0,   -4 ]

phonon:
- q-position: [    0.0000000,    0.0000000,    0.0000000 ]
  distance:    0.0000000
  band:
  - # 1
    frequency:   -0.0023379585
  - # 2
    frequency:    0.0020049044
  - # 3
    frequency:    0.0024371269
  - # 4
    frequency:    0.7434204508
  - # 5
    frequency:    0.7726302726
  - # 6
    frequency:    1.0248112571
  - # 7
    frequency:    1.0728448868
  - # 8
    frequency:    1.1299858326
  - # 9
    frequency:    1.2582812243
  - # 10
    frequency:    1.5253073872
  - # 11
    frequency:    1.5446714197
  - # 12
    frequency:    1.5742851464
  - # 13
    frequency:    1.6141460325
  - # 14
    frequency:    1.9571957674
  - # 15
    frequency:    2.0407394766
  - # 16
    frequency:    2.0564783025
  - # 17
    frequency:    2.2295884762
  - # 18
    frequency:    2.4705553415
  - # 19
    frequency:    2.5340106182
  - # 20
    frequency:    2.6170760925
  - # 21
    frequency:    2.6249438626
  - # 22
    frequency:    2.9138876595
  - # 23
    frequency:    3.1074742430
  - # 24
    frequency:    3.1188686459
  - # 25
    frequency:    3.2074418568
  - # 26
    frequency:    3.5700402426
  - # 27
    frequency:    3.7935717860
  - # 28
    frequency:    4.2189347406
  - # 29
    frequency:    4.2898480079
  - # 30
    frequency:    4.5944583380
  - # 31
    frequency:    4.6880445798
  - # 32
    frequency:    4.7793658521
  - # 33
    frequency:    4.9891134172
  - # 34
    frequency:    5.2676411161
  - # 35
    frequency:    5.2844948688
  - # 36
    frequency:    5.4302700130

- q-position: [    0.0000000,    0.0100000,    0.0000000 ]
  distance:    0.0014519
  band:
  - # 1
    frequency:    0.0096413194
  - # 2
    frequency:    0.0206397982
  - # 3
    frequency:    0.0455153241
  - # 4
    frequency:    0.7434473711
  - # 5
    frequency:    0.7725297314
  - # 6
    frequency:    1.0251361031
  - # 7
    frequency:    1.0728232452
  - # 8
    frequency:    1.1300589531
  - # 9
    frequency:    1.2577817988
  - # 10
    frequency:    1.5252976472
  - # 11
    frequency:    1.5445764136
  - # 12
    frequency:    1.5743550478
  - # 13
    frequency:    1.6141569474
  - # 14
    frequency:    1.9573738074
  - # 15
    frequency:    2.0396479929
  - # 16
    frequency:    2.0576830101
  - # 17
    frequency:    2.2297368641
  - # 18
    frequency:    2.4705855571
  - # 19
    frequency:    2.5340295321
  - # 20
    frequency:    2.6169786511
  - # 21
    frequency:    2.6249767657
  - # 22
    frequency:    2.9138877094
  - # 23
    frequency:    3.1073754579
  - # 24
    frequency:    3.1183043263
  - # 25
    frequency:    3.2079831712
  - # 26
    frequency:    3.5698085169
  - # 27
    frequency:    3.7934370021
  - # 28
    frequency:    4.2192019402
  - # 29
    frequency:    4.2894015732
  - # 30
    frequency:    4.5941941749
  - # 31
    frequency:    4.6878940163
  - # 32
    frequency:    4.7787503301
  - # 33
    frequency:    4.9900537963
  - # 34
    frequency:    5.2675673524
  - # 35
    frequency:    5.2847291544
  - # 36
    frequency:    5.4302028029

- q-position: [    0.0000000,    0.0200000,    0.0000000 ]
  distance:    0.0029038
  band:
  - # 1
    frequency:    0.0196607925
  - # 2
    frequency:    0.0410753239
  - # 3
    frequency:    0.0909210118
  - # 4
    frequency:    0.7435306967
  - # 5
    frequency:    0.7722302715
  - # 6
    frequency:    1.0261073501
  - # 7
    frequency:    1.0727572416
  - # 8
    frequency:    1.1302770041
  - # 9
    frequency:    1.2562918683
  - # 10
    frequency:    1.5252702964
  - # 11
    frequency:    1.5442656984
  - # 12
    frequency:    1.5745840046
  - # 13
    frequency:    1.6141905064
  - # 14
    frequency:    1.9579070796
  - # 15
    frequency:    2.0370227885
  - # 16
    frequency:    2.0606466189
  - # 17
    frequency:    2.2301814294
  - # 18
    frequency:    2.4706762154
  - # 19
    frequency:    2.5340862751
  - # 20
    frequency:    2.6166867123
  - # 21
    frequency:    2.6250757135
  - # 22
    frequency:    2.9138873015
  - # 23
    frequency:    3.1070795314
  - # 24
    frequency:    3.1166546409
  - # 25
    frequency:    3.2095627359
  - # 26
    frequency:    3.5691124104
  - # 27
    frequency:    3.7930349931
  - # 28
    frequency:    4.2200028874
  - # 29
    frequency:    4.2880693567
  - # 30
    frequency:    4.5933844502
  - # 31
    frequency:    4.6874425681
  - # 32
    frequency:    4.7769661378
  - # 33
    frequency:    4.9928245891
  - # 34
    frequency:    5.2673621743
  - # 35
    frequency:    5.2854148838
  - # 36
    frequency:    5.4300013864

- q-position: [    0.0000000,    0.0300000,    0.0000000 ]
  distance:    0.0043557
  band:
  - # 1
    frequency:    0.0296330463
  - # 2
    frequency:    0.0615194184
  - # 3
    frequency:    0.1362536382
  - # 4
    frequency:    0.7436779704
  - # 5
    frequency:    0.7717385139
  - # 6
    frequency:    1.0277152724
  - # 7
    frequency:    1.0726436373
  - # 8
    frequency:    1.1306360845
  - # 9
    frequency:    1.2538359218
  - # 10
    frequency:    1.5252308958
  - # 11
    frequency:    1.5436699088
  - # 12
    frequency:    1.5750216479
  - # 13
    frequency:    1.6142500925
  - # 14
    frequency:    1.9587930738
  - # 15
    frequency:    2.0337304837
  - # 16
    frequency:    2.0644987262
  - # 17
    frequency:    2.2309203793
  - # 18
    frequency:    2.4708273543
  - # 19
    frequency:    2.5341808434
  - # 20
    frequency:    2.6162014330
  - # 21
    frequency:    2.6252414187
  - # 22
    frequency:    2.9138847618
  - # 23
    frequency:    3.1065877459
  - # 24
    frequency:    3.1140351978
  - # 25
    frequency:    3.2120616384
  - # 26
    frequency:    3.5679491571
  - # 27
    frequency:    3.7923727770
  - # 28
    frequency:    4.2213356097
  - # 29
    frequency:    4.2858722659
  - # 30
    frequency:    4.5919790157
  - # 31
    frequency:    4.6866909625
  - # 32
    frequency:    4.7741878194
  - # 33
    frequency:    4.9972861353
  - # 34
    frequency:    5.2670664472
  - # 35
    frequency:    5.2865081600
  - # 36
    frequency:    5.4296664041

- q-position: [    0.0000000,    0.0400000,    0.0000000 ]
  distance:    0.0058076
  band:
  - # 1
    frequency:    0.0396366738
  - # 2
    frequency:    0.0819240616
  - # 3
    frequency:    0.1814556500
  - # 4
    frequency:    0.7439012752
  - # 5
    frequency:    0.7710659547
  - # 6
    frequency:    1.0299441373
  - # 7
    frequency:    1.0724770268
  - # 8
    frequency:    1.1311297926
  - # 9
    frequency:    1.2504530512
  - # 10
    frequency:    1.5251885585
  - # 11
    frequency:    1.5426975485
  - # 12
    frequency:    1.5757252516
  - # 13
    frequency:    1.6143443734
  - # 14
    frequency:    1.9600277163
  - # 15
    frequency:    2.0301896643
  - # 16
    frequency:    2.0688145124
  - # 17
    frequency:    2.2319507337
  - # 18
    frequency:    2.4710390454
  - # 19
    frequency:    2.5343132060
  - # 20
    frequency:    2.6155247478
  - # 21
    frequency:    2.6254750583
  - # 22
    frequency:    2.9138772977
  - # 23
    frequency:    3.1059022252
  - # 24
    frequency:    3.1106010506
  - # 25
    frequency:    3.2153193514
  - # 26
    frequency:    3.5663142221
  - # 27
    frequency:    3.7914620112
  - # 28
    frequency:    4.2231967625
  - # 29
    frequency:    4.2828440076
  - # 30
    frequency:    4.5898996076
  - # 31
    frequency:    4.6856404144
  - # 32
    frequency:    4.7706697658
  - # 33
    frequency:    5.0032379943
  - # 34
    frequency:    5.2667301035
  - # 35
    frequency:    5.2879540404
  - # 36
    frequency:    5.4291989227

- q-position: [    0.0000000,    0.0500000,    0.0000000 ]
  distance:    0.0072594
  band:
  - # 1
    frequency:    0.0496997534
  - # 2
    frequency:    0.1022663209
  - # 3
    frequency:    0.2264747591
  - # 4
    frequency:    0.7442165536
  - # 5
    frequency:    0.7702297652
  - # 6
    frequency:    1.0327728698
  - # 7
    frequency:    1.0722498233
  - # 8
    frequency:    1.1317493778
  - # 9
    frequency:    1.2461946993
  - # 10
    frequency:    1.5251557204
  - # 11
    frequency:    1.5412636263
  - # 12
    frequency:    1.5767291104
  - # 13
    frequency:    1.6144915118
  - # 14
    frequency:    1.9616055265
  - # 15
    frequency:    2.0265686618
  - # 16
    frequency:    2.0734170616
  - # 17
    frequency:    2.2332683376
  - # 18
    frequency:    2.4713114084
  - # 19
    frequency:    2.5344832650
  - # 20
    frequency:    2.6146593787
  - # 21
    frequency:    2.6257782581
  - # 22
    frequency:    2.9138609941
  - # 23
    frequency:    3.1050259145
  - # 24
    frequency:    3.1065139344
  - # 25
    frequency:    3.2191665496
  - # 26
    frequency:    3.5642014237
  - # 27
    frequency:    3.7903189182
  - # 28
    frequency:    4.2255815506
  - # 29
    frequency:    4.2790295338
  - # 30
    frequency:    4.5870481422
  - # 31
    frequency:    4.6842926307
  - # 32
    frequency:    4.7667060467
  - # 33
    frequency:    5.0104523539
  - # 34
    frequency:    5.2663993546
  - # 35
    frequency:    5.2896993871
  - # 36
    frequency:    5.4286004335

- q-position: [    0.0000000,    0.0600000,    0.0000000 ]
  distance:    0.0087113
  band:
  - # 1
    frequency:    0.0598415056
  - # 2
    frequency:    0.1225273865
  - # 3
    frequency:    0.2712546306
  - # 4
    frequency:    0.7446427479
  - # 5
    frequency:    0.7692541640
  - # 6
    frequency:    1.0361758898
  - # 7
    frequency:    1.0719522360
  - # 8
    frequency:    1.1324839568
  - # 9
    frequency:    1.2411220759
  - # 10
    frequency:    1.5251478236
  - # 11
    frequency:    1.5393133011
  - # 12
    frequency:    1.5780182138
  - # 13
    frequency:    1.6147244210
  - # 14
    frequency:    1.9635198208
  - # 15
    frequency:    2.0229377324
  - # 16
    frequency:    2.0782253184
  - # 17
    frequency:    2.2348678783
  - # 18
    frequency:    2.4716446298
  - # 19
    frequency:    2.5346907981
  - # 20
    frequency:    2.6136088547
  - # 21
    frequency:    2.6261530707
  - # 22
    frequency:    2.9138308041
  - # 23
    frequency:    3.1019212300
  - # 24
    frequency:    3.1039625535
  - # 25
    frequency:    3.2234462236
  - # 26
    frequency:    3.5616031206
  - # 27
    frequency:    3.7889641506
  - # 28
    frequency:    4.2284836338
  - # 29
    frequency:    4.2744831364
  - # 30
    frequency:    4.5833185150
  - # 31
    frequency:    4.6826498169
  - # 32
    frequency:    4.7625928066
  - # 33
    frequency:    5.0187017123
  - # 34
    frequency:    5.2661109568
  - # 35
    frequency:    5.2916986859
  - # 36
    frequency:    5.4278728502

- q-position: [    0.0000000,    0.0700000,    0.0000000 ]
  distance:    0.0101632
  band:
  - # 1
    frequency:    0.0700778543
  - # 2
    frequency:    0.1426895797
  - # 3
    frequency:    0.3157309451
  - # 4
    frequency:    0.7452008376
  - # 5
    frequency:    0.7681727117
  - # 6
    frequency:    1.0401240508
  - # 7
    frequency:    1.0715722364
  - # 8
    frequency:    1.1333207948
  - # 9
    frequency:    1.2353036193
  - # 10
    frequency:    1.5251829197
  - # 11
    frequency:    1.5368305070
  - # 12
    frequency:    1.5795167561
  - # 13
    frequency:    1.6150961980
  - # 14
    frequency:    1.9657629511
  - # 15
    frequency:    2.0193270983
  - # 16
    frequency:    2.0831962106
  - # 17
    frequency:    2.2367429091
  - # 18
    frequency:    2.4720389874
  - # 19
    frequency:    2.5349353779
  - # 20
    frequency:    2.6123775441
  - # 21
    frequency:    2.6266019471
  - # 22
    frequency:    2.9137805348
  - # 23
    frequency:    3.0969473829
  - # 24
    frequency:    3.1027166421
  - # 25
    frequency:    3.2280223672
  - # 26
    frequency:    3.5585104772
  - # 27
    frequency:    3.7874225730
  - # 28
    frequency:    4.2318950260
  - # 29
    frequency:    4.2692663859
  - # 30
    frequency:    4.5786111038
  - # 31
    frequency:    4.6807146853
  - # 32
    frequency:    4.7585982551
  - # 33
    frequency:    5.0277764040
  - # 34
    frequency:    5.2658915758
  - # 35
    frequency:    5.2939147877
  - # 36
    frequency:    5.4270185059

- q-position: [    0.0000000,    0.0800000,    0.0000000 ]
  distance:    0.0116151
  band:
  - # 1
    frequency:    0.0804226699
  - # 2
    frequency:    0.1627355975
  - # 3
    frequency:    0.3598266356
  - # 4
    frequency:    0.7459128473
  - # 5
    frequency:    0.7670321777
  - # 6
    frequency:    1.0445856030
  - # 7
    frequency:    1.0710955176
  - # 8
    frequency:    1.1342456544
  - # 9
    frequency:    1.2288128104
  - # 10
    frequency:    1.5252811987
  - # 11
    frequency:    1.5338318210
  - # 12
    frequency:    1.5810929573
  - # 13
    frequency:    1.6156837227
  - # 14
    frequency:    1.9683265625
  - # 15
    frequency:    2.0157488032
  - # 16
    frequency:    2.0883029817
  - # 17
    frequency:    2.2388858779
  - # 18
    frequency:    2.4724948806
  - # 19
    frequency:    2.5352162635
  - # 20
    frequency:    2.6109707051
  - # 21
    frequency:    2.6271277029
  - # 22
    frequency:    2.9137028249
  - # 23
    frequency:    3.0916933668
  - # 24
    frequency:    3.1012934009
  - # 25
    frequency:    3.2327806543
  - # 26
    frequency:    3.5549138203
  - # 27
    frequency:    3.7857229376
  - # 28
    frequency:    4.2358060018
  - # 29
    frequency:    4.2634460878
  - # 30
    frequency:    4.5728479407
  - # 31
    frequency:    4.6784904675
  - # 32
    frequency:    4.7549413474
  - # 33
    frequency:    5.0374927342
  - # 34
    frequency:    5.2657593126
  - # 35
    frequency:    5.2963175062
  - # 36
    frequency:    5.4260401503

- q-position: [    0.0000000,    0.0900000,    0.0000000 ]
  distance:    0.0130670
  band:
  - # 1
    frequency:    0.0908880787
  - # 2
    frequency:    0.1826482541
  - # 3
    frequency:    0.4034444134
  - # 4
    frequency:    0.7468008928
  - # 5
    frequency:    0.7658992056
  - # 6
    frequency:    1.0495271197
  - # 7
    frequency:    1.0705054558
  - # 8
    frequency:    1.1352432118
  - # 9
    frequency:    1.2217265378
  - # 10
    frequency:    1.5254644540
  - # 11
    frequency:    1.5303538624
  - # 12
    frequency:    1.5825758262
  - # 13
    frequency:    1.6165853368
  - # 14
    frequency:    1.9712018563
  - # 15
    frequency:    2.0122057526
  - # 16
    frequency:    2.0935263535
  - # 17
    frequency:    2.2412881630
  - # 18
    frequency:    2.4730128653
  - # 19
    frequency:    2.5355322572
  - # 20
    frequency:    2.6093945661
  - # 21
    frequency:    2.6277334782
  - # 22
    frequency:    2.9135891107
  - # 23
    frequency:    3.0862398128
  - # 24
    frequency:    3.0996987266
  - # 25
    frequency:    3.2376254891
  - # 26
    frequency:    3.5508030917
  - # 27
    frequency:    3.7838974368
  - # 28
    frequency:    4.2402050190
  - # 29
    frequency:    4.2570923846
  - # 30
    frequency:    4.5659854498
  - # 31
    frequency:    4.6759809300
  - # 32
    frequency:    4.7517791842
  - # 33
    frequency:    5.0476946600
  - # 34
    frequency:    5.2657256494
  - # 35
    frequency:    5.2988818121
  - # 36
    frequency:    5.4249409453

- q-position: [    0.0000000,    0.1000000,    0.0000000 ]
  distance:    0.0145189
  band:
  - # 1
    frequency:    0.1014845087
  - # 2
    frequency:    0.2024103730
  - # 3
    frequency:    0.4464539792
  - # 4
    frequency:    0.7478863149
  - # 5
    frequency:    0.7648721969
  - # 6
    frequency:    1.0549143319
  - # 7
    frequency:    1.0697831060
  - # 8
    frequency:    1.1362975385
  - # 9
    frequency:    1.2141241064
  - # 10
    frequency:    1.5257554937
  - # 11
    frequency:    1.5264419044
  - # 12
    frequency:    1.5837816406
  - # 13
    frequency:    1.6179070908
  - # 14
    frequency:    1.9743798440
  - # 15
    frequency:    2.0086958575
  - # 16
    frequency:    2.0988505932
  - # 17
    frequency:    2.2439401150
  - # 18
    frequency:    2.4735936950
  - # 19
    frequency:    2.5358815151
  - # 20
    frequency:    2.6076564435
  - # 21
    frequency:    2.6284226927
  - # 22
    frequency:    2.9134295811
  - # 23
    frequency:    3.0806511305
  - # 24
    frequency:    3.0979391434
  - # 25
    frequency:    3.2424761105
  - # 26
    frequency:    3.5461684008
  - # 27
    frequency:    3.7819811256
  - # 28
    frequency:    4.2450786648
  - # 29
    frequency:    4.2502770768
  - # 30
    frequency:    4.5580216555
  - # 31
    frequency:    4.6731903949
  - # 32
    frequency:    4.7492032371
  - # 33
    frequency:    5.0582519309
  - # 34
    frequency:    5.2657971472
  - # 35
    frequency:    5.3015862868
  - # 36
    frequency:    5.4237244605

- q-position: [    0.0000000,    0.1100000,    0.0000000 ]
  distance:    0.0159708
  band:
  - # 1
    frequency:    0.1122206570
  - # 2
    frequency:    0.2220047354
  - # 3
    frequency:    0.4886688399
  - # 4
    frequency:    0.7491889378
  - # 5
    frequency:    0.7641033655
  - # 6
    frequency:    1.0607128398
  - # 7
    frequency:    1.0689072940
  - # 8
    frequency:    1.1373926439
  - # 9
    frequency:    1.2060868930
  - # 10
    frequency:    1.5221426182
  - # 11
    frequency:    1.5261775128
  - # 12
    frequency:    1.5845487428
  - # 13
    frequency:    1.6197360702
  - # 14
    frequency:    1.9778515818
  - # 15
    frequency:    2.0052141215
  - # 16
    frequency:    2.1042616417
  - # 17
    frequency:    2.2468311048
  - # 18
    frequency:    2.4742383658
  - # 19
    frequency:    2.5362612980
  - # 20
    frequency:    2.6057649161
  - # 21
    frequency:    2.6291989947
  - # 22
    frequency:    2.9132131165
  - # 23
    frequency:    3.0749793936
  - # 24
    frequency:    3.0960217517
  - # 25
    frequency:    3.2472629830
  - # 26
    frequency:    3.5410006632
  - # 27
    frequency:    3.7800112225
  - # 28
    frequency:    4.2430721856
  - # 29
    frequency:    4.2504116299
  - # 30
    frequency:    4.5489962742
  - # 31
    frequency:    4.6701237679
  - # 32
    frequency:    4.7472439083
  - # 33
    frequency:    5.0690567378
  - # 34
    frequency:    5.2659767544
  - # 35
    frequency:    5.3044119744
  - # 36
    frequency:    5.4223946685

- q-position: [    0.0000000,    0.1200000,    0.0000000 ]
  distance:    0.0174227
  band:
  - # 1
    frequency:    0.1231034409
  - # 2
    frequency:    0.2414140528
  - # 3
    frequency:    0.5298020662
  - # 4
    frequency:    0.7507264690
  - # 5
    frequency:    0.7638414647
  - # 6
    frequency:    1.0668886766
  - # 7
    frequency:    1.0678549427
  - # 8
    frequency:    1.1385130726
  - # 9
    frequency:    1.1976985951
  - # 10
    frequency:    1.5175005139
  - # 11
    frequency:    1.5267534411
  - # 12
    frequency:    1.5847705297
  - # 13
    frequency:    1.6221114282
  - # 14
    frequency:    1.9816083747
  - # 15
    frequency:    2.0017537802
  - # 16
    frequency:    2.1097461827
  - # 17
    frequency:    2.2499495784
  - # 18
    frequency:    2.4749481671
  - # 19
    frequency:    2.5366676419
  - # 20
    frequency:    2.6037300740
  - # 21
    frequency:    2.6300662060
  - # 22
    frequency:    2.9129272144
  - # 23
    frequency:    3.0692675900
  - # 24
    frequency:    3.0939541747
  - # 25
    frequency:    3.2519248810
  - # 26
    frequency:    3.5352923062
  - # 27
    frequency:    3.7780263076
  - # 28
    frequency:    4.2355487432
  - # 29
    frequency:    4.2561867091
  - # 30
    frequency:    4.5389844673
  - # 31
    frequency:    4.6667865740
  - # 32
    frequency:    4.7458814742
  - # 33
    frequency:    5.0800200514
  - # 34
    frequency:    5.2662647718
  - # 35
    frequency:    5.3073415837
  - # 36
    frequency:    5.4209559393

- q-position: [    0.0000000,    0.1300000,    0.0000000 ]
  distance:    0.0188746
  band:
  - # 1
    frequency:    0.1341379579
  - # 2
    frequency:    0.2606209543
  - # 3
    frequency:    0.5693784320
  - # 4
    frequency:    0.7525140456
  - # 5
    frequency:    0.7645174859
  - # 6
    frequency:    1.0666018970
  - # 7
    frequency:    1.0734087163
  - # 8
    frequency:    1.1396445478
  - # 9
    frequency:    1.1890459664
  - # 10
    frequency:    1.5125567004
  - # 11
    frequency:    1.5275052856
  - # 12
    frequency:    1.5844089261
  - # 13
    frequency:    1.6250123189
  - # 14
    frequency:    1.9856419457
  - # 15
    frequency:    1.9983069706
  - # 16
    frequency:    2.1152911752
  - # 17
    frequency:    2.2532831174
  - # 18
    frequency:    2.4757247355
  - # 19
    frequency:    2.5370949213
  - # 20
    frequency:    2.6015638733
  - # 21
    frequency:    2.6310282620
  - # 22
    frequency:    2.9125579015
  - # 23
    frequency:    3.0635522007
  - # 24
    frequency:    3.0917445046
  - # 25
    frequency:    3.2564067058
  - # 26
    frequency:    3.5290380061
  - # 27
    frequency:    3.7760654585
  - # 28
    frequency:    4.2277757668
  - # 29
    frequency:    4.2623848252
  - # 30
    frequency:    4.5280869005
  - # 31
    frequency:    4.6631850060
  - # 32
    frequency:    4.7450602308
  - # 33
    frequency:    5.0910682216
  - # 34
    frequency:    5.2666595566
  - # 35
    frequency:    5.3103589530
  - # 36
    frequency:    5.4194130347

- q-position: [    0.0000000,    0.1400000,    0.0000000 ]
  distance:    0.0203264
  band:
  - # 1
    frequency:    0.1453274673
  - # 2
    frequency:    0.2796079833
  - # 3
    frequency:    0.6065601736
  - # 4
    frequency:    0.7545639222
  - # 5
    frequency:    0.7669156282
  - # 6
    frequency:    1.0651247740
  - # 7
    frequency:    1.0802409166
  - # 8
    frequency:    1.1407746570
  - # 9
    frequency:    1.1802198780
  - # 10
    frequency:    1.5073488273
  - # 11
    frequency:    1.5284534875
  - # 12
    frequency:    1.5834817271
  - # 13
    frequency:    1.6283705737
  - # 14
    frequency:    1.9899445645
  - # 15
    frequency:    1.9948651461
  - # 16
    frequency:    2.1208836250
  - # 17
    frequency:    2.2568185051
  - # 18
    frequency:    2.4765701125
  - # 19
    frequency:    2.5375352675
  - # 20
    frequency:    2.5992806311
  - # 21
    frequency:    2.6320891484
  - # 22
    frequency:    2.9120896386
  - # 23
    frequency:    3.0578652032
  - # 24
    frequency:    3.0894012493
  - # 25
    frequency:    3.2606579404
  - # 26
    frequency:    3.5222354174
  - # 27
    frequency:    3.7741673681
  - # 28
    frequency:    4.2198193626
  - # 29
    frequency:    4.2689850675
  - # 30
    frequency:    4.5164192039
  - # 31
    frequency:    4.6593259869
  - # 32
    frequency:    4.7447025828
  - # 33
    frequency:    5.1021400526
  - # 34
    frequency:    5.2671580404
  - # 35
    frequency:    5.3134487015
  - # 36
    frequency:    5.4177711024

- q-position: [    0.0000000,    0.1500000,    0.0000000 ]
  distance:    0.0217783
  band:
  - # 1
    frequency:    0.1566733956
  - # 2
    frequency:    0.2983576030
  - # 3
    frequency:    0.6398498064
  - # 4
    frequency:    0.7568852869
  - # 5
    frequency:    0.7724652537
  - # 6
    frequency:    1.0634048509
  - # 7
    frequency:    1.0873543833
  - # 8
    frequency:    1.1418935849
  - # 9
    frequency:    1.1713164503
  - # 10
    frequency:    1.5019115390
  - # 11
    frequency:    1.5296163151
  - # 12
    frequency:    1.5820368332
  - # 13
    frequency:    1.6320958623
  - # 14
    frequency:    1.9914193468
  - # 15
    frequency:    1.9945091348
  - # 16
    frequency:    2.1265104850
  - # 17
    frequency:    2.2605417972
  - # 18
    frequency:    2.4774868048
  - # 19
    frequency:    2.5379777952
  - # 20
    frequency:    2.5968977118
  - # 21
    frequency:    2.6332528337
  - # 22
    frequency:    2.9115052261
  - # 23
    frequency:    3.0522356146
  - # 24
    frequency:    3.0869332794
  - # 25
    frequency:    3.2646316233
  - # 26
    frequency:    3.5148858439
  - # 27
    frequency:    3.7723695000
  - # 28
    frequency:    4.2117418996
  - # 29
    frequency:    4.2759647360
  - # 30
    frequency:    4.5041031097
  - # 31
    frequency:    4.6552172528
  - # 32
    frequency:    4.7447208164
  - # 33
    frequency:    5.1131843865
  - # 34
    frequency:    5.2677561166
  - # 35
    frequency:    5.3165960073
  - # 36
    frequency:    5.4160356706

- q-position: [    0.0000000,    0.1600000,    0.0000000 ]
  distance:    0.0232302
  band:
  - # 1
    frequency:    0.1681753698
  - # 2
    frequency:    0.3168522103
  - # 3
    frequency:    0.6669072930
  - # 4
    frequency:    0.7594841882
  - # 5
    frequency:    0.7834148819
  - # 6
    frequency:    1.0614359654
  - # 7
    frequency:    1.0947192108
  - # 8
    frequency:    1.1429949321
  - # 9
    frequency:    1.1624378586
  - # 10
    frequency:    1.4962771075
  - # 11
    frequency:    1.5310093143
  - # 12
    frequency:    1.5801301215
  - # 13
    frequency:    1.6360969972
  - # 14
    frequency:    1.9879603796
  - # 15
    frequency:    1.9993292402
  - # 16
    frequency:    2.1321586247
  - # 17
    frequency:    2.2644383973
  - # 18
    frequency:    2.4784778450
  - # 19
    frequency:    2.5384075777
  - # 20
    frequency:    2.5944364617
  - # 21
    frequency:    2.6345232006
  - # 22
    frequency:    2.9107857283
  - # 23
    frequency:    3.0466906709
  - # 24
    frequency:    3.0843497789
  - # 25
    frequency:    3.2682837338
  - # 26
    frequency:    3.5069948105
  - # 27
    frequency:    3.7707073349
  - # 28
    frequency:    4.2036011987
  - # 29
    frequency:    4.2832993767
  - # 30
    frequency:    4.4912602808
  - # 31
    frequency:    4.6508674619
  - # 32
    frequency:    4.7450256396
  - # 33
    frequency:    5.1241581513
  - # 34
    frequency:    5.2684489366
  - # 35
    frequency:    5.3197864721
  - # 36
    frequency:    5.4142126430

- q-position: [    0.0000000,    0.1700000,    0.0000000 ]
  distance:    0.0246821
  band:
  - # 1
    frequency:    0.1798312744
  - # 2
    frequency:    0.3350741590
  - # 3
    frequency:    0.6855717919
  - # 4
    frequency:    0.7623635564
  - # 5
    frequency:    0.8017946232
  - # 6
    frequency:    1.0592403087
  - # 7
    frequency:    1.1023059712
  - # 8
    frequency:    1.1440767398
  - # 9
    frequency:    1.1536922385
  - # 10
    frequency:    1.4904761146
  - # 11
    frequency:    1.5326448365
  - # 12
    frequency:    1.5778133204
  - # 13
    frequency:    1.6402932128
  - # 14
    frequency:    1.9844789406
  - # 15
    frequency:    2.0043991485
  - # 16
    frequency:    2.1378148374
  - # 17
    frequency:    2.2684931358
  - # 18
    frequency:    2.4795468521
  - # 19
    frequency:    2.5388043125
  - # 20
    frequency:    2.5919234520
  - # 21
    frequency:    2.6359039738
  - # 22
    frequency:    2.9099104384
  - # 23
    frequency:    3.0412567069
  - # 24
    frequency:    3.0816601972
  - # 25
    frequency:    3.2715729035
  - # 26
    frequency:    3.4985724956
  - # 27
    frequency:    3.7692137507
  - # 28
    frequency:    4.1954496872
  - # 29
    frequency:    4.2909627955
  - # 30
    frequency:    4.4780088207
  - # 31
    frequency:    4.6462863365
  - # 32
    frequency:    4.7455316166
  - # 33
    frequency:    5.1350247991
  - # 34
    frequency:    5.2692311402
  - # 35
    frequency:    5.3230060421
  - # 36
    frequency:    5.4123082945

- q-position: [    0.0000000,    0.1800000,    0.0000000 ]
  distance:    0.0261340
  band:
  - # 1
    frequency:    0.1916373325
  - # 2
    frequency:    0.3530057938
  - # 3