# epsilon and Z* of atoms 1 5 9
  22.62551623    0.00000000    2.95489034    0.00000000   22.41171027    0.00000000    2.95500530    0.00000000   42.61711723 
  -2.86911601   -0.30203053    0.09457271   -0.08942701   -2.73640266   -0.30242342    0.07895659    0.45866593   -2.75620812 
   1.31523595   -0.30822078    0.05133094   -0.64468971    1.37439348    0.09452958    0.03732539   -0.08887890    1.18254570 
   1.55388007   -0.07671048   -0.14590364   -0.02884478    1.36200917   -0.05315948   -0.11628199    0.02262474    1.57366242 
