phonopy:
  version: 2.7.0
  frequency_unit_conversion_factor: 15.633302
  symmetry_tolerance: 1.00000e-05
  nac_unit_conversion_factor: 14.399652
  configuration:
    mp: "25 50 50"
    dim: "4 2 2"
    nac: ".true."
    tprop: ".true."

physical_unit:
  atomic_mass: "AMU"
  length: "angstrom"
  force_constants: "eV/angstrom^2"

space_group:
  type: "P2_1/c"
  number: 14
  Hall_symbol: "-P 2ybc"

supercell_matrix:
- [   4,   0,   0 ]
- [   0,   2,   0 ]
- [   0,   0,   2 ]

primitive_cell:
  lattice:
  - [     4.418585750000000,     0.000000000000000,     0.006476890000000 ] # a
  - [     0.000000000000000,     6.887581050000000,     0.000000000000000 ] # b
  - [    -2.115720840000000,     0.000000000000000,     7.612971430000000 ] # c
  points:
  - symbol: Se # 1
    coordinates: [  0.321254110000000,  0.248277640000000,  0.156836510000000 ]
    mass: 78.960000
  - symbol: Se # 2
    coordinates: [  0.178745840000000,  0.748277640000000,  0.343163370000000 ]
    mass: 78.960000
  - symbol: Se # 3
    coordinates: [  0.678745840000000,  0.751722360000000,  0.843163370000000 ]
    mass: 78.960000
  - symbol: Se # 4
    coordinates: [  0.821254110000000,  0.251722360000000,  0.656836510000000 ]
    mass: 78.960000
  - symbol: Ag # 5
    coordinates: [  0.767248830000000,  0.022445190000000,  0.340068360000000 ]
    mass: 107.868200
  - symbol: Ag # 6
    coordinates: [  0.732751130000000,  0.522445190000000,  0.159931520000000 ]
    mass: 107.868200
  - symbol: Ag # 7
    coordinates: [  0.232751130000000,  0.977554810000000,  0.659931520000000 ]
    mass: 107.868200
  - symbol: Ag # 8
    coordinates: [  0.267248830000000,  0.477554810000000,  0.840068360000000 ]
    mass: 107.868200
  - symbol: Ag # 9
    coordinates: [  0.224340470000000,  0.360744990000000,  0.467039010000000 ]
    mass: 107.868200
  - symbol: Ag # 10
    coordinates: [  0.275659480000000,  0.860744990000000,  0.032960870000000 ]
    mass: 107.868200
  - symbol: Ag # 11
    coordinates: [  0.775659480000000,  0.639255010000000,  0.532960870000000 ]
    mass: 107.868200
  - symbol: Ag # 12
    coordinates: [  0.724340470000000,  0.139255010000000,  0.967039010000000 ]
    mass: 107.868200
  reciprocal_lattice: # without 2pi
  - [     0.226224600806921,     0.000000000000000,     0.062870077321160 ] # a*
  - [     0.000000000000000,     0.145188854075263,     0.000000000000000 ] # b*
  - [    -0.000192465171871,     0.000000000000000,     0.131301267398149 ] # c*

unit_cell:
  lattice:
  - [     4.418585750000000,     0.000000000000000,     0.006476890000000 ] # a
  - [     0.000000000000000,     6.887581050000000,     0.000000000000000 ] # b
  - [    -2.115720840000000,     0.000000000000000,     7.612971430000000 ] # c
  points:
  - symbol: Se # 1
    coordinates: [  0.321254110000000,  0.248277640000000,  0.156836510000000 ]
    mass: 78.960000
    reduced_to: 1
  - symbol: Se # 2
    coordinates: [  0.178745840000000,  0.748277640000000,  0.343163370000000 ]
    mass: 78.960000
    reduced_to: 2
  - symbol: Se # 3
    coordinates: [  0.678745840000000,  0.751722360000000,  0.843163370000000 ]
    mass: 78.960000
    reduced_to: 3
  - symbol: Se # 4
    coordinates: [  0.821254110000000,  0.251722360000000,  0.656836510000000 ]
    mass: 78.960000
    reduced_to: 4
  - symbol: Ag # 5
    coordinates: [  0.767248830000000,  0.022445190000000,  0.340068360000000 ]
    mass: 107.868200
    reduced_to: 5
  - symbol: Ag # 6
    coordinates: [  0.732751130000000,  0.522445190000000,  0.159931520000000 ]
    mass: 107.868200
    reduced_to: 6
  - symbol: Ag # 7
    coordinates: [  0.232751130000000,  0.977554810000000,  0.659931520000000 ]
    mass: 107.868200
    reduced_to: 7
  - symbol: Ag # 8
    coordinates: [  0.267248830000000,  0.477554810000000,  0.840068360000000 ]
    mass: 107.868200
    reduced_to: 8
  - symbol: Ag # 9
    coordinates: [  0.224340470000000,  0.360744990000000,  0.467039010000000 ]
    mass: 107.868200
    reduced_to: 9
  - symbol: Ag # 10
    coordinates: [  0.275659480000000,  0.860744990000000,  0.032960870000000 ]
    mass: 107.868200
    reduced_to: 10
  - symbol: Ag # 11
    coordinates: [  0.775659480000000,  0.639255010000000,  0.532960870000000 ]
    mass: 107.868200
    reduced_to: 11
  - symbol: Ag # 12
    coordinates: [  0.724340470000000,  0.139255010000000,  0.967039010000000 ]
    mass: 107.868200
    reduced_to: 12

supercell:
  lattice:
  - [    17.674343000000000,     0.000000000000000,     0.025907560000000 ] # a
  - [     0.000000000000000,    13.775162099999999,     0.000000000000000 ] # b
  - [    -4.231441680000000,     0.000000000000000,    15.225942860000000 ] # c
  points:
  - symbol: Se # 1
    coordinates: [  0.080313527500000,  0.124138820000000,  0.078418255000000 ]
    mass: 78.960000
    reduced_to: 1
  - symbol: Se # 2
    coordinates: [  0.330313527500000,  0.124138820000000,  0.078418255000000 ]
    mass: 78.960000
    reduced_to: 1
  - symbol: Se # 3
    coordinates: [  0.580313527500000,  0.124138820000000,  0.078418255000000 ]
    mass: 78.960000
    reduced_to: 1
  - symbol: Se # 4
    coordinates: [  0.830313527500000,  0.124138820000000,  0.078418255000000 ]
    mass: 78.960000
    reduced_to: 1
  - symbol: Se # 5
    coordinates: [  0.080313527500000,  0.624138820000000,  0.078418255000000 ]
    mass: 78.960000
    reduced_to: 1
  - symbol: Se # 6
    coordinates: [  0.330313527500000,  0.624138820000000,  0.078418255000000 ]
    mass: 78.960000
    reduced_to: 1
  - symbol: Se # 7
    coordinates: [  0.580313527500000,  0.624138820000000,  0.078418255000000 ]
    mass: 78.960000
    reduced_to: 1
  - symbol: Se # 8
    coordinates: [  0.830313527500000,  0.624138820000000,  0.078418255000000 ]
    mass: 78.960000
    reduced_to: 1
  - symbol: Se # 9
    coordinates: [  0.080313527500000,  0.124138820000000,  0.578418255000000 ]
    mass: 78.960000
    reduced_to: 1
  - symbol: Se # 10
    coordinates: [  0.330313527500000,  0.124138820000000,  0.578418255000000 ]
    mass: 78.960000
    reduced_to: 1
  - symbol: Se # 11
    coordinates: [  0.580313527500000,  0.124138820000000,  0.578418255000000 ]
    mass: 78.960000
    reduced_to: 1
  - symbol: Se # 12
    coordinates: [  0.830313527500000,  0.124138820000000,  0.578418255000000 ]
    mass: 78.960000
    reduced_to: 1
  - symbol: Se # 13
    coordinates: [  0.080313527500000,  0.624138820000000,  0.578418255000000 ]
    mass: 78.960000
    reduced_to: 1
  - symbol: Se # 14
    coordinates: [  0.330313527500000,  0.624138820000000,  0.578418255000000 ]
    mass: 78.960000
    reduced_to: 1
  - symbol: Se # 15
    coordinates: [  0.580313527500000,  0.624138820000000,  0.578418255000000 ]
    mass: 78.960000
    reduced_to: 1
  - symbol: Se # 16
    coordinates: [  0.830313527500000,  0.624138820000000,  0.578418255000000 ]
    mass: 78.960000
    reduced_to: 1
  - symbol: Se # 17
    coordinates: [  0.044686460000000,  0.374138820000000,  0.171581685000000 ]
    mass: 78.960000
    reduced_to: 17
  - symbol: Se # 18
    coordinates: [  0.294686460000000,  0.374138820000000,  0.171581685000000 ]
    mass: 78.960000
    reduced_to: 17
  - symbol: Se # 19
    coordinates: [  0.544686460000000,  0.374138820000000,  0.171581685000000 ]
    mass: 78.960000
    reduced_to: 17
  - symbol: Se # 20
    coordinates: [  0.794686460000000,  0.374138820000000,  0.171581685000000 ]
    mass: 78.960000
    reduced_to: 17
  - symbol: Se # 21
    coordinates: [  0.044686460000000,  0.874138820000000,  0.171581685000000 ]
    mass: 78.960000
    reduced_to: 17
  - symbol: Se # 22
    coordinates: [  0.294686460000000,  0.874138820000000,  0.171581685000000 ]
    mass: 78.960000
    reduced_to: 17
  - symbol: Se # 23
    coordinates: [  0.544686460000000,  0.874138820000000,  0.171581685000000 ]
    mass: 78.960000
    reduced_to: 17
  - symbol: Se # 24
    coordinates: [  0.794686460000000,  0.874138820000000,  0.171581685000000 ]
    mass: 78.960000
    reduced_to: 17
  - symbol: Se # 25
    coordinates: [  0.044686460000000,  0.374138820000000,  0.671581685000000 ]
    mass: 78.960000
    reduced_to: 17
  - symbol: Se # 26
    coordinates: [  0.294686460000000,  0.374138820000000,  0.671581685000000 ]
    mass: 78.960000
    reduced_to: 17
  - symbol: Se # 27
    coordinates: [  0.544686460000000,  0.374138820000000,  0.671581685000000 ]
    mass: 78.960000
    reduced_to: 17
  - symbol: Se # 28
    coordinates: [  0.794686460000000,  0.374138820000000,  0.671581685000000 ]
    mass: 78.960000
    reduced_to: 17
  - symbol: Se # 29
    coordinates: [  0.044686460000000,  0.874138820000000,  0.671581685000000 ]
    mass: 78.960000
    reduced_to: 17
  - symbol: Se # 30
    coordinates: [  0.294686460000000,  0.874138820000000,  0.671581685000000 ]
    mass: 78.960000
    reduced_to: 17
  - symbol: Se # 31
    coordinates: [  0.544686460000000,  0.874138820000000,  0.671581685000000 ]
    mass: 78.960000
    reduced_to: 17
  - symbol: Se # 32
    coordinates: [  0.794686460000000,  0.874138820000000,  0.671581685000000 ]
    mass: 78.960000
    reduced_to: 17
  - symbol: Se # 33
    coordinates: [  0.169686460000000,  0.375861180000000,  0.421581685000000 ]
    mass: 78.960000
    reduced_to: 33
  - symbol: Se # 34
    coordinates: [  0.419686460000000,  0.375861180000000,  0.421581685000000 ]
    mass: 78.960000
    reduced_to: 33
  - symbol: Se # 35
    coordinates: [  0.669686460000000,  0.375861180000000,  0.421581685000000 ]
    mass: 78.960000
    reduced_to: 33
  - symbol: Se # 36
    coordinates: [  0.919686460000000,  0.375861180000000,  0.421581685000000 ]
    mass: 78.960000
    reduced_to: 33
  - symbol: Se # 37
    coordinates: [  0.169686460000000,  0.875861180000000,  0.421581685000000 ]
    mass: 78.960000
    reduced_to: 33
  - symbol: Se # 38
    coordinates: [  0.419686460000000,  0.875861180000000,  0.421581685000000 ]
    mass: 78.960000
    reduced_to: 33
  - symbol: Se # 39
    coordinates: [  0.669686460000000,  0.875861180000000,  0.421581685000000 ]
    mass: 78.960000
    reduced_to: 33
  - symbol: Se # 40
    coordinates: [  0.919686460000000,  0.875861180000000,  0.421581685000000 ]
    mass: 78.960000
    reduced_to: 33
  - symbol: Se # 41
    coordinates: [  0.169686460000000,  0.375861180000000,  0.921581685000000 ]
    mass: 78.960000
    reduced_to: 33
  - symbol: Se # 42
    coordinates: [  0.419686460000000,  0.375861180000000,  0.921581685000000 ]
    mass: 78.960000
    reduced_to: 33
  - symbol: Se # 43
    coordinates: [  0.669686460000000,  0.375861180000000,  0.921581685000000 ]
    mass: 78.960000
    reduced_to: 33
  - symbol: Se # 44
    coordinates: [  0.919686460000000,  0.375861180000000,  0.921581685000000 ]
    mass: 78.960000
    reduced_to: 33
  - symbol: Se # 45
    coordinates: [  0.169686460000000,  0.875861180000000,  0.921581685000000 ]
    mass: 78.960000
    reduced_to: 33
  - symbol: Se # 46
    coordinates: [  0.419686460000000,  0.875861180000000,  0.921581685000000 ]
    mass: 78.960000
    reduced_to: 33
  - symbol: Se # 47
    coordinates: [  0.669686460000000,  0.875861180000000,  0.921581685000000 ]
    mass: 78.960000
    reduced_to: 33
  - symbol: Se # 48
    coordinates: [  0.919686460000000,  0.875861180000000,  0.921581685000000 ]
    mass: 78.960000
    reduced_to: 33
  - symbol: Se # 49
    coordinates: [  0.205313527500000,  0.125861180000000,  0.328418255000000 ]
    mass: 78.960000
    reduced_to: 49
  - symbol: Se # 50
    coordinates: [  0.455313527500000,  0.125861180000000,  0.328418255000000 ]
    mass: 78.960000
    reduced_to: 49
  - symbol: Se # 51
    coordinates: [  0.705313527500000,  0.125861180000000,  0.328418255000000 ]
    mass: 78.960000
    reduced_to: 49
  - symbol: Se # 52
    coordinates: [  0.955313527500000,  0.125861180000000,  0.328418255000000 ]
    mass: 78.960000
    reduced_to: 49
  - symbol: Se # 53
    coordinates: [  0.205313527500000,  0.625861180000000,  0.328418255000000 ]
    mass: 78.960000
    reduced_to: 49
  - symbol: Se # 54
    coordinates: [  0.455313527500000,  0.625861180000000,  0.328418255000000 ]
    mass: 78.960000
    reduced_to: 49
  - symbol: Se # 55
    coordinates: [  0.705313527500000,  0.625861180000000,  0.328418255000000 ]
    mass: 78.960000
    reduced_to: 49
  - symbol: Se # 56
    coordinates: [  0.955313527500000,  0.625861180000000,  0.328418255000000 ]
    mass: 78.960000
    reduced_to: 49
  - symbol: Se # 57
    coordinates: [  0.205313527500000,  0.125861180000000,  0.828418255000000 ]
    mass: 78.960000
    reduced_to: 49
  - symbol: Se # 58
    coordinates: [  0.455313527500000,  0.125861180000000,  0.828418255000000 ]
    mass: 78.960000
    reduced_to: 49
  - symbol: Se # 59
    coordinates: [  0.705313527500000,  0.125861180000000,  0.828418255000000 ]
    mass: 78.960000
    reduced_to: 49
  - symbol: Se # 60
    coordinates: [  0.955313527500000,  0.125861180000000,  0.828418255000000 ]
    mass: 78.960000
    reduced_to: 49
  - symbol: Se # 61
    coordinates: [  0.205313527500000,  0.625861180000000,  0.828418255000000 ]
    mass: 78.960000
    reduced_to: 49
  - symbol: Se # 62
    coordinates: [  0.455313527500000,  0.625861180000000,  0.828418255000000 ]
    mass: 78.960000
    reduced_to: 49
  - symbol: Se # 63
    coordinates: [  0.705313527500000,  0.625861180000000,  0.828418255000000 ]
    mass: 78.960000
    reduced_to: 49
  - symbol: Se # 64
    coordinates: [  0.955313527500000,  0.625861180000000,  0.828418255000000 ]
    mass: 78.960000
    reduced_to: 49
  - symbol: Ag # 65
    coordinates: [  0.191812207500000,  0.011222595000000,  0.170034180000000 ]
    mass: 107.868200
    reduced_to: 65
  - symbol: Ag # 66
    coordinates: [  0.441812207500000,  0.011222595000000,  0.170034180000000 ]
    mass: 107.868200
    reduced_to: 65
  - symbol: Ag # 67
    coordinates: [  0.691812207500000,  0.011222595000000,  0.170034180000000 ]
    mass: 107.868200
    reduced_to: 65
  - symbol: Ag # 68
    coordinates: [  0.941812207500000,  0.011222595000000,  0.170034180000000 ]
    mass: 107.868200
    reduced_to: 65
  - symbol: Ag # 69
    coordinates: [  0.191812207500000,  0.511222595000000,  0.170034180000000 ]
    mass: 107.868200
    reduced_to: 65
  - symbol: Ag # 70
    coordinates: [  0.441812207500000,  0.511222595000000,  0.170034180000000 ]
    mass: 107.868200
    reduced_to: 65
  - symbol: Ag # 71
    coordinates: [  0.691812207500000,  0.511222595000000,  0.170034180000000 ]
    mass: 107.868200
    reduced_to: 65
  - symbol: Ag # 72
    coordinates: [  0.941812207500000,  0.511222595000000,  0.170034180000000 ]
    mass: 107.868200
    reduced_to: 65
  - symbol: Ag # 73
    coordinates: [  0.191812207500000,  0.011222595000000,  0.670034180000000 ]
    mass: 107.868200
    reduced_to: 65
  - symbol: Ag # 74
    coordinates: [  0.441812207500000,  0.011222595000000,  0.670034180000000 ]
    mass: 107.868200
    reduced_to: 65
  - symbol: Ag # 75
    coordinates: [  0.691812207500000,  0.011222595000000,  0.670034180000000 ]
    mass: 107.868200
    reduced_to: 65
  - symbol: Ag # 76
    coordinates: [  0.941812207500000,  0.011222595000000,  0.670034180000000 ]
    mass: 107.868200
    reduced_to: 65
  - symbol: Ag # 77
    coordinates: [  0.191812207500000,  0.511222595000000,  0.670034180000000 ]
    mass: 107.868200
    reduced_to: 65
  - symbol: Ag # 78
    coordinates: [  0.441812207500000,  0.511222595000000,  0.670034180000000 ]
    mass: 107.868200
    reduced_to: 65
  - symbol: Ag # 79
    coordinates: [  0.691812207500000,  0.511222595000000,  0.670034180000000 ]
    mass: 107.868200
    reduced_to: 65
  - symbol: Ag # 80
    coordinates: [  0.941812207500000,  0.511222595000000,  0.670034180000000 ]
    mass: 107.868200
    reduced_to: 65
  - symbol: Ag # 81
    coordinates: [  0.183187782500000,  0.261222595000000,  0.079965760000000 ]
    mass: 107.868200
    reduced_to: 81
  - symbol: Ag # 82
    coordinates: [  0.433187782500000,  0.261222595000000,  0.079965760000000 ]
    mass: 107.868200
    reduced_to: 81
  - symbol: Ag # 83
    coordinates: [  0.683187782500000,  0.261222595000000,  0.079965760000000 ]
    mass: 107.868200
    reduced_to: 81
  - symbol: Ag # 84
    coordinates: [  0.933187782500000,  0.261222595000000,  0.079965760000000 ]
    mass: 107.868200
    reduced_to: 81
  - symbol: Ag # 85
    coordinates: [  0.183187782500000,  0.761222595000000,  0.079965760000000 ]
    mass: 107.868200
    reduced_to: 81
  - symbol: Ag # 86
    coordinates: [  0.433187782500000,  0.761222595000000,  0.079965760000000 ]
    mass: 107.868200
    reduced_to: 81
  - symbol: Ag # 87
    coordinates: [  0.683187782500000,  0.761222595000000,  0.079965760000000 ]
    mass: 107.868200
    reduced_to: 81
  - symbol: Ag # 88
    coordinates: [  0.933187782500000,  0.761222595000000,  0.079965760000000 ]
    mass: 107.868200
    reduced_to: 81
  - symbol: Ag # 89
    coordinates: [  0.183187782500000,  0.261222595000000,  0.579965760000000 ]
    mass: 107.868200
    reduced_to: 81
  - symbol: Ag # 90
    coordinates: [  0.433187782500000,  0.261222595000000,  0.579965760000000 ]
    mass: 107.868200
    reduced_to: 81
  - symbol: Ag # 91
    coordinates: [  0.683187782500000,  0.261222595000000,  0.579965760000000 ]
    mass: 107.868200
    reduced_to: 81
  - symbol: Ag # 92
    coordinates: [  0.933187782500000,  0.261222595000000,  0.579965760000000 ]
    mass: 107.868200
    reduced_to: 81
  - symbol: Ag # 93
    coordinates: [  0.183187782500000,  0.761222595000000,  0.579965760000000 ]
    mass: 107.868200
    reduced_to: 81
  - symbol: Ag # 94
    coordinates: [  0.433187782500000,  0.761222595000000,  0.579965760000000 ]
    mass: 107.868200
    reduced_to: 81
  - symbol: Ag # 95
    coordinates: [  0.683187782500000,  0.761222595000000,  0.579965760000000 ]
    mass: 107.868200
    reduced_to: 81
  - symbol: Ag # 96
    coordinates: [  0.933187782500000,  0.761222595000000,  0.579965760000000 ]
    mass: 107.868200
    reduced_to: 81
  - symbol: Ag # 97
    coordinates: [  0.058187782500000,  0.488777405000000,  0.329965760000000 ]
    mass: 107.868200
    reduced_to: 97
  - symbol: Ag # 98
    coordinates: [  0.308187782500000,  0.488777405000000,  0.329965760000000 ]
    mass: 107.868200
    reduced_to: 97
  - symbol: Ag # 99
    coordinates: [  0.558187782500000,  0.488777405000000,  0.329965760000000 ]
    mass: 107.868200
    reduced_to: 97
  - symbol: Ag # 100
    coordinates: [  0.808187782500000,  0.488777405000000,  0.329965760000000 ]
    mass: 107.868200
    reduced_to: 97
  - symbol: Ag # 101
    coordinates: [  0.058187782500000,  0.988777405000000,  0.329965760000000 ]
    mass: 107.868200
    reduced_to: 97
  - symbol: Ag # 102
    coordinates: [  0.308187782500000,  0.988777405000000,  0.329965760000000 ]
    mass: 107.868200
    reduced_to: 97
  - symbol: Ag # 103
    coordinates: [  0.558187782500000,  0.988777405000000,  0.329965760000000 ]
    mass: 107.868200
    reduced_to: 97
  - symbol: Ag # 104
    coordinates: [  0.808187782500000,  0.988777405000000,  0.329965760000000 ]
    mass: 107.868200
    reduced_to: 97
  - symbol: Ag # 105
    coordinates: [  0.058187782500000,  0.488777405000000,  0.829965760000000 ]
    mass: 107.868200
    reduced_to: 97
  - symbol: Ag # 106
    coordinates: [  0.308187782500000,  0.488777405000000,  0.829965760000000 ]
    mass: 107.868200
    reduced_to: 97
  - symbol: Ag # 107
    coordinates: [  0.558187782500000,  0.488777405000000,  0.829965760000000 ]
    mass: 107.868200
    reduced_to: 97
  - symbol: Ag # 108
    coordinates: [  0.808187782500000,  0.488777405000000,  0.829965760000000 ]
    mass: 107.868200
    reduced_to: 97
  - symbol: Ag # 109
    coordinates: [  0.058187782500000,  0.988777405000000,  0.829965760000000 ]
    mass: 107.868200
    reduced_to: 97
  - symbol: Ag # 110
    coordinates: [  0.308187782500000,  0.988777405000000,  0.829965760000000 ]
    mass: 107.868200
    reduced_to: 97
  - symbol: Ag # 111
    coordinates: [  0.558187782500000,  0.988777405000000,  0.829965760000000 ]
    mass: 107.868200
    reduced_to: 97
  - symbol: Ag # 112
    coordinates: [  0.808187782500000,  0.988777405000000,  0.829965760000000 ]
    mass: 107.868200
    reduced_to: 97
  - symbol: Ag # 113
    coordinates: [  0.066812207500000,  0.238777405000000,  0.420034180000000 ]
    mass: 107.868200
    reduced_to: 113
  - symbol: Ag # 114
    coordinates: [  0.316812207500000,  0.238777405000000,  0.420034180000000 ]
    mass: 107.868200
    reduced_to: 113
  - symbol: Ag # 115
    coordinates: [  0.566812207500000,  0.238777405000000,  0.420034180000000 ]
    mass: 107.868200
    reduced_to: 113
  - symbol: Ag # 116
    coordinates: [  0.816812207500000,  0.238777405000000,  0.420034180000000 ]
    mass: 107.868200
    reduced_to: 113
  - symbol: Ag # 117
    coordinates: [  0.066812207500000,  0.738777405000000,  0.420034180000000 ]
    mass: 107.868200
    reduced_to: 113
  - symbol: Ag # 118
    coordinates: [  0.316812207500000,  0.738777405000000,  0.420034180000000 ]
    mass: 107.868200
    reduced_to: 113
  - symbol: Ag # 119
    coordinates: [  0.566812207500000,  0.738777405000000,  0.420034180000000 ]
    mass: 107.868200
    reduced_to: 113
  - symbol: Ag # 120
    coordinates: [  0.816812207500000,  0.738777405000000,  0.420034180000000 ]
    mass: 107.868200
    reduced_to: 113
  - symbol: Ag # 121
    coordinates: [  0.066812207500000,  0.238777405000000,  0.920034180000000 ]
    mass: 107.868200
    reduced_to: 113
  - symbol: Ag # 122
    coordinates: [  0.316812207500000,  0.238777405000000,  0.920034180000000 ]
    mass: 107.868200
    reduced_to: 113
  - symbol: Ag # 123
    coordinates: [  0.566812207500000,  0.238777405000000,  0.920034180000000 ]
    mass: 107.868200
    reduced_to: 113
  - symbol: Ag # 124
    coordinates: [  0.816812207500000,  0.238777405000000,  0.920034180000000 ]
    mass: 107.868200
    reduced_to: 113
  - symbol: Ag # 125
    coordinates: [  0.066812207500000,  0.738777405000000,  0.920034180000000 ]
    mass: 107.868200
    reduced_to: 113
  - symbol: Ag # 126
    coordinates: [  0.316812207500000,  0.738777405000000,  0.920034180000000 ]
    mass: 107.868200
    reduced_to: 113
  - symbol: Ag # 127
    coordinates: [  0.566812207500000,  0.738777405000000,  0.920034180000000 ]
    mass: 107.868200
    reduced_to: 113
  - symbol: Ag # 128
    coordinates: [  0.816812207500000,  0.738777405000000,  0.920034180000000 ]
    mass: 107.868200
    reduced_to: 113
  - symbol: Ag # 129
    coordinates: [  0.056085117500000,  0.180372495000000,  0.233519505000000 ]
    mass: 107.868200
    reduced_to: 129
  - symbol: Ag # 130
    coordinates: [  0.306085117500000,  0.180372495000000,  0.233519505000000 ]
    mass: 107.868200
    reduced_to: 129
  - symbol: Ag # 131
    coordinates: [  0.556085117500000,  0.180372495000000,  0.233519505000000 ]
    mass: 107.868200
    reduced_to: 129
  - symbol: Ag # 132
    coordinates: [  0.806085117500000,  0.180372495000000,  0.233519505000000 ]
    mass: 107.868200
    reduced_to: 129
  - symbol: Ag # 133
    coordinates: [  0.056085117500000,  0.680372495000000,  0.233519505000000 ]
    mass: 107.868200
    reduced_to: 129
  - symbol: Ag # 134
    coordinates: [  0.306085117500000,  0.680372495000000,  0.233519505000000 ]
    mass: 107.868200
    reduced_to: 129
  - symbol: Ag # 135
    coordinates: [  0.556085117500000,  0.680372495000000,  0.233519505000000 ]
    mass: 107.868200
    reduced_to: 129
  - symbol: Ag # 136
    coordinates: [  0.806085117500000,  0.680372495000000,  0.233519505000000 ]
    mass: 107.868200
    reduced_to: 129
  - symbol: Ag # 137
    coordinates: [  0.056085117500000,  0.180372495000000,  0.733519505000000 ]
    mass: 107.868200
    reduced_to: 129
  - symbol: Ag # 138
    coordinates: [  0.306085117500000,  0.180372495000000,  0.733519505000000 ]
    mass: 107.868200
    reduced_to: 129
  - symbol: Ag # 139
    coordinates: [  0.556085117500000,  0.180372495000000,  0.733519505000000 ]
    mass: 107.868200
    reduced_to: 129
  - symbol: Ag # 140
    coordinates: [  0.806085117500000,  0.180372495000000,  0.733519505000000 ]
    mass: 107.868200
    reduced_to: 129
  - symbol: Ag # 141
    coordinates: [  0.056085117500000,  0.680372495000000,  0.733519505000000 ]
    mass: 107.868200
    reduced_to: 129
  - symbol: Ag # 142
    coordinates: [  0.306085117500000,  0.680372495000000,  0.733519505000000 ]
    mass: 107.868200
    reduced_to: 129
  - symbol: Ag # 143
    coordinates: [  0.556085117500000,  0.680372495000000,  0.733519505000000 ]
    mass: 107.868200
    reduced_to: 129
  - symbol: Ag # 144
    coordinates: [  0.806085117500000,  0.680372495000000,  0.733519505000000 ]
    mass: 107.868200
    reduced_to: 129
  - symbol: Ag # 145
    coordinates: [  0.068914870000000,  0.430372495000000,  0.016480435000000 ]
    mass: 107.868200
    reduced_to: 145
  - symbol: Ag # 146
    coordinates: [  0.318914870000000,  0.430372495000000,  0.016480435000000 ]
    mass: 107.868200
    reduced_to: 145
  - symbol: Ag # 147
    coordinates: [  0.568914870000000,  0.430372495000000,  0.016480435000000 ]
    mass: 107.868200
    reduced_to: 145
  - symbol: Ag # 148
    coordinates: [  0.818914870000000,  0.430372495000000,  0.016480435000000 ]
    mass: 107.868200
    reduced_to: 145
  - symbol: Ag # 149
    coordinates: [  0.068914870000000,  0.930372495000000,  0.016480435000000 ]
    mass: 107.868200
    reduced_to: 145
  - symbol: Ag # 150
    coordinates: [  0.318914870000000,  0.930372495000000,  0.016480435000000 ]
    mass: 107.868200
    reduced_to: 145
  - symbol: Ag # 151
    coordinates: [  0.568914870000000,  0.930372495000000,  0.016480435000000 ]
    mass: 107.868200
    reduced_to: 145
  - symbol: Ag # 152
    coordinates: [  0.818914870000000,  0.930372495000000,  0.016480435000000 ]
    mass: 107.868200
    reduced_to: 145
  - symbol: Ag # 153
    coordinates: [  0.068914870000000,  0.430372495000000,  0.516480435000000 ]
    mass: 107.868200
    reduced_to: 145
  - symbol: Ag # 154
    coordinates: [  0.318914870000000,  0.430372495000000,  0.516480435000000 ]
    mass: 107.868200
    reduced_to: 145
  - symbol: Ag # 155
    coordinates: [  0.568914870000000,  0.430372495000000,  0.516480435000000 ]
    mass: 107.868200
    reduced_to: 145
  - symbol: Ag # 156
    coordinates: [  0.818914870000000,  0.430372495000000,  0.516480435000000 ]
    mass: 107.868200
    reduced_to: 145
  - symbol: Ag # 157
    coordinates: [  0.068914870000000,  0.930372495000000,  0.516480435000000 ]
    mass: 107.868200
    reduced_to: 145
  - symbol: Ag # 158
    coordinates: [  0.318914870000000,  0.930372495000000,  0.516480435000000 ]
    mass: 107.868200
    reduced_to: 145
  - symbol: Ag # 159
    coordinates: [  0.568914870000000,  0.930372495000000,  0.516480435000000 ]
    mass: 107.868200
    reduced_to: 145
  - symbol: Ag # 160
    coordinates: [  0.818914870000000,  0.930372495000000,  0.516480435000000 ]
    mass: 107.868200
    reduced_to: 145
  - symbol: Ag # 161
    coordinates: [  0.193914870000000,  0.319627505000000,  0.266480435000000 ]
    mass: 107.868200
    reduced_to: 161
  - symbol: Ag # 162
    coordinates: [  0.443914870000000,  0.319627505000000,  0.266480435000000 ]
    mass: 107.868200
    reduced_to: 161
  - symbol: Ag # 163
    coordinates: [  0.693914870000000,  0.319627505000000,  0.266480435000000 ]
    mass: 107.868200
    reduced_to: 161
  - symbol: Ag # 164
    coordinates: [  0.943914870000000,  0.319627505000000,  0.266480435000000 ]
    mass: 107.868200
    reduced_to: 161
  - symbol: Ag # 165
    coordinates: [  0.193914870000000,  0.819627505000000,  0.266480435000000 ]
    mass: 107.868200
    reduced_to: 161
  - symbol: Ag # 166
    coordinates: [  0.443914870000000,  0.819627505000000,  0.266480435000000 ]
    mass: 107.868200
    reduced_to: 161
  - symbol: Ag # 167
    coordinates: [  0.693914870000000,  0.819627505000000,  0.266480435000000 ]
    mass: 107.868200
    reduced_to: 161
  - symbol: Ag # 168
    coordinates: [  0.943914870000000,  0.819627505000000,  0.266480435000000 ]
    mass: 107.868200
    reduced_to: 161
  - symbol: Ag # 169
    coordinates: [  0.193914870000000,  0.319627505000000,  0.766480435000000 ]
    mass: 107.868200
    reduced_to: 161
  - symbol: Ag # 170
    coordinates: [  0.443914870000000,  0.319627505000000,  0.766480435000000 ]
    mass: 107.868200
    reduced_to: 161
  - symbol: Ag # 171
    coordinates: [  0.693914870000000,  0.319627505000000,  0.766480435000000 ]
    mass: 107.868200
    reduced_to: 161
  - symbol: Ag # 172
    coordinates: [  0.943914870000000,  0.319627505000000,  0.766480435000000 ]
    mass: 107.868200
    reduced_to: 161
  - symbol: Ag # 173
    coordinates: [  0.193914870000000,  0.819627505000000,  0.766480435000000 ]
    mass: 107.868200
    reduced_to: 161
  - symbol: Ag # 174
    coordinates: [  0.443914870000000,  0.819627505000000,  0.766480435000000 ]
    mass: 107.868200
    reduced_to: 161
  - symbol: Ag # 175
    coordinates: [  0.693914870000000,  0.819627505000000,  0.766480435000000 ]
    mass: 107.868200
    reduced_to: 161
  - symbol: Ag # 176
    coordinates: [  0.943914870000000,  0.819627505000000,  0.766480435000000 ]
    mass: 107.868200
    reduced_to: 161
  - symbol: Ag # 177
    coordinates: [  0.181085117500000,  0.069627505000000,  0.483519505000000 ]
    mass: 107.868200
    reduced_to: 177
  - symbol: Ag # 178
    coordinates: [  0.431085117500000,  0.069627505000000,  0.483519505000000 ]
    mass: 107.868200
    reduced_to: 177
  - symbol: Ag # 179
    coordinates: [  0.681085117500000,  0.069627505000000,  0.483519505000000 ]
    mass: 107.868200
    reduced_to: 177
  - symbol: Ag # 180
    coordinates: [  0.931085117500000,  0.069627505000000,  0.483519505000000 ]
    mass: 107.868200
    reduced_to: 177
  - symbol: Ag # 181