# Thermal properties / unit cell (natom)

unit:
  temperature:   K
  free_energy:   kJ/mol
  entropy:       J/K/mol
  heat_capacity: J/K/mol

natom: 12   
cutoff_frequency:    0.000
num_modes: 2250000
num_integrated_modes: 2250000

zero_point_energy:      19.7043727
high_T_entropy:       1393.3772350

thermal_properties:
- temperature:         0.0000000
  free_energy:        19.7043727
  entropy:             0.0000000
  heat_capacity:       0.0000000
  energy:             19.7043727

- temperature:        10.0000000
  free_energy:        19.6910228
  entropy:             5.7846836
  heat_capacity:      17.6213839
  energy:             19.7488696

- temperature:        20.0000000
  free_energy:        19.5101660
  entropy:            33.0215514
  heat_capacity:      67.3523945
  energy:             20.1705971

- temperature:        30.0000000
  free_energy:        19.0023544
  entropy:            69.1575972
  heat_capacity:     112.5108546
  energy:             21.0770823

- temperature:        40.0000000
  free_energy:        18.1226235
  entropy:           106.7527210
  heat_capacity:     149.2997310
  energy:             22.3927324

- temperature:        50.0000000
  free_energy:        16.8707599
  entropy:           143.3534827
  heat_capacity:     178.6943969
  energy:             24.0384340

- temperature:        60.0000000
  free_energy:        15.2619276
  entropy:           178.0601748
  heat_capacity:     201.7693264
  energy:             25.9455381

- temperature:        70.0000000
  free_energy:        13.3169153
  entropy:           210.5680096
  heat_capacity:     219.6991512
  energy:             28.0566759

- temperature:        80.0000000
  free_energy:        11.0579937
  entropy:           240.8521597
  heat_capacity:     233.6162429
  energy:             30.3261664

- temperature:        90.0000000
  free_energy:         8.5069282
  entropy:           269.0211973
  heat_capacity:     244.4767210
  energy:             32.7188359

- temperature:       100.0000000
  free_energy:         5.6840736
  entropy:           295.2395124
  heat_capacity:     253.0281799
  energy:             35.2080248

- temperature:       110.0000000
  free_energy:         2.6080405
  entropy:           319.6868588
  heat_capacity:     259.8334380
  energy:             37.7735950

- temperature:       120.0000000
  free_energy:        -0.7043462
  entropy:           342.5385142
  heat_capacity:     265.3096844
  energy:             40.4002755

- temperature:       130.0000000
  free_energy:        -4.2379528
  entropy:           363.9565213
  heat_capacity:     269.7652000
  energy:             43.0763950

- temperature:       140.0000000
  free_energy:        -7.9791855
  entropy:           384.0866508
  heat_capacity:     273.4286299
  energy:             45.7929456

- temperature:       150.0000000
  free_energy:       -11.9158255
  entropy:           403.0581790
  heat_capacity:     276.4708034
  energy:             48.5429014

- temperature:       160.0000000
  free_energy:       -16.0368681
  entropy:           420.9849478
  heat_capacity:     279.0205306
  energy:             51.3207235

- temperature:       170.0000000
  free_energy:       -20.3323765
  entropy:           437.9669203
  heat_capacity:     281.1759135
  energy:             54.1220000

- temperature:       180.0000000
  free_energy:       -24.7933509
  entropy:           454.0918425
  heat_capacity:     283.0124338
  energy:             56.9431808

- temperature:       190.0000000
  free_energy:       -29.4116146
  entropy:           469.4368278
  heat_capacity:     284.5887568
  energy:             59.7813827

- temperature:       200.0000000
  free_energy:       -34.1797149
  entropy:           484.0697901
  heat_capacity:     285.9509256
  energy:             62.6342431

- temperature:       210.0000000
  free_energy:       -39.0908376
  entropy:           498.0507019
  heat_capacity:     287.1354159
  energy:             65.4998098

- temperature:       220.0000000
  free_energy:       -44.1387332
  entropy:           511.4326824
  heat_capacity:     288.1713817
  energy:             68.3764570

- temperature:       230.0000000
  free_energy:       -49.3176527
  entropy:           524.2629298
  heat_capacity:     289.0823214
  energy:             71.2628211

- temperature:       240.0000000
  free_energy:       -54.6222934
  entropy:           536.5835168
  heat_capacity:     289.8873254
  energy:             74.1577507

- temperature:       250.0000000
  free_energy:       -60.0477500
  entropy:           548.4320678
  heat_capacity:     290.6020189
  energy:             77.0602669

- temperature:       260.0000000
  free_energy:       -65.5894742
  entropy:           559.8423359
  heat_capacity:     291.2392812
  energy:             79.9695332

- temperature:       270.0000000
  free_energy:       -71.2432374
  entropy:           570.8446949
  heat_capacity:     291.8097986
  energy:             82.8848302

- temperature:       280.0000000
  free_energy:       -77.0051000
  entropy:           581.4665593
  heat_capacity:     292.3224928
  energy:             85.8055366

- temperature:       290.0000000
  free_energy:       -82.8713832
  entropy:           591.7327438
  heat_capacity:     292.7848565
  energy:             88.7311125

- temperature:       300.0000000
  free_energy:       -88.8386446
  entropy:           601.6657725
  heat_capacity:     293.2032166
  energy:             91.6610871

- temperature:       310.0000000
  free_energy:       -94.9036567
  entropy:           611.2861445
  heat_capacity:     293.5829441
  energy:             94.5950481

- temperature:       320.0000000
  free_energy:      -101.0633878
  entropy:           620.6125638
  heat_capacity:     293.9286205
  energy:             97.5326326

- temperature:       330.0000000
  free_energy:      -107.3149853
  entropy:           629.6621378
  heat_capacity:     294.2441723
  energy:            100.4735202

- temperature:       340.0000000
  free_energy:      -113.6557602
  entropy:           638.4505504
  heat_capacity:     294.5329796
  energy:            103.4174269

- temperature:       350.0000000
  free_energy:      -120.0831739
  entropy:           646.9922124
  heat_capacity:     294.7979641
  energy:            106.3641004

- temperature:       360.0000000
  free_energy:      -126.5948263
  entropy:           655.3003933
  heat_capacity:     295.0416615
  energy:            109.3133153

- temperature:       370.0000000
  free_energy:      -133.1884445
  entropy:           663.3873365
  heat_capacity:     295.2662805
  energy:            112.2648700

- temperature:       380.0000000
  free_energy:      -139.8618734
  entropy:           671.2643609
  heat_capacity:     295.4737521
  energy:            115.2185838

- temperature:       390.0000000
  free_energy:      -146.6130670
  entropy:           678.9419502
  heat_capacity:     295.6657702
  energy:            118.1742936

- temperature:       400.0000000
  free_energy:      -153.4400801
  entropy:           686.4298319
  heat_capacity:     295.8438257
  energy:            121.1318526

- temperature:       410.0000000
  free_energy:      -160.3410615
  entropy:           693.7370474
  heat_capacity:     296.0092344
  energy:            124.0911280

- temperature:       420.0000000
  free_energy:      -167.3142470
  entropy:           700.8720143
  heat_capacity:     296.1631615
  energy:            127.0519991

- temperature:       430.0000000
  free_energy:      -174.3579538
  entropy:           707.8425819
  heat_capacity:     296.3066416
  energy:            130.0143564

- temperature:       440.0000000
  free_energy:      -181.4705751
  entropy:           714.6560801
  heat_capacity:     296.4405955
  energy:            132.9781002

- temperature:       450.0000000
  free_energy:      -188.6505747
  entropy:           721.3193645
  heat_capacity:     296.5658455
  energy:            135.9431393

- temperature:       460.0000000
  free_energy:      -195.8964831
  entropy:           727.8388557
  heat_capacity:     296.6831271
  energy:            138.9093905

- temperature:       470.0000000
  free_energy:      -203.2068927
  entropy:           734.2205748
  heat_capacity:     296.7930999
  energy:            141.8767775

- temperature:       480.0000000
  free_energy:      -210.5804542
  entropy:           740.4701758
  heat_capacity:     296.8963570
  energy:            144.8452301

- temperature:       490.0000000
  free_energy:      -218.0158735
  entropy:           746.5929746
  heat_capacity:     296.9934328
  energy:            147.8146840

- temperature:       500.0000000
  free_energy:      -225.5119078
  entropy:           752.5939751
  heat_capacity:     297.0848095
  energy:            150.7850798

- temperature:       510.0000000
  free_energy:      -233.0673628
  entropy:           758.4778931
  heat_capacity:     297.1709234
  energy:            153.7563627

- temperature:       520.0000000
  free_energy:      -240.6810902
  entropy:           764.2491774
  heat_capacity:     297.2521701
  energy:            156.7284820

- temperature:       530.0000000
  free_energy:      -248.3519849
  entropy:           769.9120302
  heat_capacity:     297.3289086
  energy:            159.7013911

- temperature:       540.0000000
  free_energy:      -256.0789826
  entropy:           775.4704239
  heat_capacity:     297.4014655
  energy:            162.6750463

- temperature:       550.0000000
  free_energy:      -263.8610578
  entropy:           780.9281185
  heat_capacity:     297.4701386
  energy:            165.6494074

- temperature:       560.0000000
  free_energy:      -271.6972212
  entropy:           786.2886755
  heat_capacity:     297.5351995
  energy:            168.6244370

- temperature:       570.0000000
  free_energy:      -279.5865188
  entropy:           791.5554719
  heat_capacity:     297.5968967
  energy:            171.6001002

- temperature:       580.0000000
  free_energy:      -287.5280288
  entropy:           796.7317127
  heat_capacity:     297.6554575
  energy:            174.5763645

- temperature:       590.0000000
  free_energy:      -295.5208613
  entropy:           801.8204422
  heat_capacity:     297.7110907
  energy:            177.5531996

- temperature:       600.0000000
  free_energy:      -303.5641557
  entropy:           806.8245547
  heat_capacity:     297.7639878
  energy:            180.5305772

- temperature:       610.0000000
  free_energy:      -311.6570796
  entropy:           811.7468039
  heat_capacity:     297.8143249
  energy:            183.5084708

- temperature:       620.0000000
  free_energy:      -319.7988276
  entropy:           816.5898118
  heat_capacity:     297.8622643
  energy:            186.4868557

- temperature:       630.0000000
  free_energy:      -327.9886200
  entropy:           821.3560772
  heat_capacity:     297.9079557
  energy:            189.4657086

- temperature:       640.0000000
  free_energy:      -336.2257013
  entropy:           826.0479829
  heat_capacity:     297.9515371
  energy:            192.4450078

- temperature:       650.0000000
  free_energy:      -344.5093394
  entropy:           830.6678033
  heat_capacity:     297.9931363
  energy:            195.4247328

- temperature:       660.0000000
  free_energy:      -352.8388243
  entropy:           835.2177100
  heat_capacity:     298.0328716
  energy:            198.4048643

- temperature:       670.0000000
  free_energy:      -361.2134675
  entropy:           839.6997788
  heat_capacity:     298.0708524
  energy:            201.3853843

- temperature:       680.0000000
  free_energy:      -369.6326004
  entropy:           844.1159945
  heat_capacity:     298.1071805
  energy:            204.3662758

- temperature:       690.0000000
  free_energy:      -378.0955742
  entropy:           848.4682564
  heat_capacity:     298.1419501
  energy:            207.3475228

- temperature:       700.0000000
  free_energy:      -386.6017584
  entropy:           852.7583834
  heat_capacity:     298.1752490
  energy:            210.3291099

- temperature:       710.0000000
  free_energy:      -395.1505405
  entropy:           856.9881178
  heat_capacity:     298.2071589
  energy:            213.3110231

- temperature:       720.0000000
  free_energy:      -403.7413250
  entropy:           861.1591303
  heat_capacity:     298.2377559
  energy:            216.2932487

- temperature:       730.0000000
  free_energy:      -412.3735328
  entropy:           865.2730231
  heat_capacity:     298.2671110
  energy:            219.2757741

- temperature:       740.0000000
  free_energy:      -421.0466002
  entropy:           869.3313342
  heat_capacity:     298.2952903
  energy:            222.2585870

- temperature:       750.0000000
  free_energy:      -429.7599791
  entropy:           873.3355404
  heat_capacity:     298.3223558
  energy:            225.2416762

- temperature:       760.0000000
  free_energy:      -438.5131354
  entropy:           877.2870606
  heat_capacity:     298.3483653
  energy:            228.2250306

- temperature:       770.0000000
  free_energy:      -447.3055492
  entropy:           881.1872589
  heat_capacity:     298.3733729
  energy:            231.2086401

- temperature:       780.0000000
  free_energy:      -456.1367139
  entropy:           885.0374472
  heat_capacity:     298.3974295
  energy:            234.1924949

- temperature:       790.0000000
  free_energy:      -465.0061357
  entropy:           888.8388879
  heat_capacity:     298.4205826
  energy:            237.1765857

- temperature:       800.0000000
  free_energy:      -473.9133332
  entropy:           892.5927962
  heat_capacity:     298.4428768
  energy:            240.1609037

- temperature:       810.0000000
  free_energy:      -482.8578371
  entropy:           896.3003427
  heat_capacity:     298.4643540
  energy:            243.1454405

- temperature:       820.0000000
  free_energy:      -491.8391893
  entropy:           899.9626555
  heat_capacity:     298.4850536
  energy:            246.1301882

- temperature:       830.0000000
  free_energy:      -500.8569431
  entropy:           903.5808219
  heat_capacity:     298.5050128
  energy:            249.1151391

- temperature:       840.0000000
  free_energy:      -509.9106621
  entropy:           907.1558907
  heat_capacity:     298.5242662
  energy:            252.1002861

- temperature:       850.0000000
  free_energy:      -518.9999206
  entropy:           910.6888739
  heat_capacity:     298.5428469
  energy:            255.0856222

- temperature:       860.0000000
  free_energy:      -528.1243026
  entropy:           914.1807482
  heat_capacity:     298.5607857
  energy:            258.0711409

- temperature:       870.0000000
  free_energy:      -537.2834017
  entropy:           917.6324570
  heat_capacity:     298.5781119
  energy:            261.0568359

- temperature:       880.0000000
  free_energy:      -546.4768209
  entropy:           921.0449114
  heat_capacity:     298.5948529
  energy:            264.0427012

- temperature:       890.0000000
  free_energy:      -555.7041720
  entropy:           924.4189922
  heat_capacity:     298.6110349
  energy:            267.0287311

- temperature:       900.0000000
  free_energy:      -564.9650756
  entropy:           927.7555508
  heat_capacity:     298.6266825
  energy:            270.0149201

- temperature:       910.0000000
  free_energy:      -574.2591607
  entropy:           931.0554107
  heat_capacity:     298.6418188
  energy:            273.0012630

- temperature:       920.0000000
  free_energy:      -583.5860642
  entropy:           934.3193685
  heat_capacity:     298.6564659
  energy:            275.9877549

- temperature:       930.0000000
  free_energy:      -592.9454309
  entropy:           937.5481954
  heat_capacity:     298.6706446
  energy:            278.9743908

- temperature:       940.0000000
  free_energy:      -602.3369135
  entropy:           940.7426380
  heat_capacity:     298.6843748
  energy:            281.9611663

- temperature:       950.0000000
  free_energy:      -611.7601715
  entropy:           943.9034193
  heat_capacity:     298.6976750
  energy:            284.9480769

- temperature:       960.0000000
  free_energy:      -621.2148720
  entropy:           947.0312400
  heat_capacity:     298.7105631
  energy:            287.9351184

- temperature:       970.0000000
  free_energy:      -630.7006887
  entropy:           950.1267789
  heat_capacity:     298.7230558
  energy:            290.9222868

- temperature:       980.0000000
  free_energy:      -640.2173022
  entropy:           953.1906943
  heat_capacity:     298.7351692
  energy:            293.9095782

- temperature:       990.0000000
  free_energy:      -649.7643993
  entropy:           956.2236245
  heat_capacity:     298.7469185
  energy:            296.8969890

- temperature:      1000.0000000
  free_energy:      -659.3416734
  entropy:           959.2261889
  heat_capacity:     298.7583181
  energy:            299.8845154
