 vasp.5.4.4.18Apr17-6-g9f103f2a35 (build Jul 30 2020 14:31:59) complex          
  
 executed on             LinuxIFC date 2021.02.04  08:17:35
 running on   20 total cores
 distrk:  each k-point on   10 cores,    2 groups
 distr:  one band on NCORES_PER_BAND=  10 cores,    1 groups


--------------------------------------------------------------------------------------------------------


 INCAR:
 POTCAR:    PAW_PBE Ag 02Apr2005                  
 POTCAR:    PAW_PBE Se 06Sep2000                  

 ----------------------------------------------------------------------------- 
|                                                                             |
|           W    W    AA    RRRRR   N    N  II  N    N   GGGG   !!!           |
|           W    W   A  A   R    R  NN   N  II  NN   N  G    G  !!!           |
|           W    W  A    A  R    R  N N  N  II  N N  N  G       !!!           |
|           W WW W  AAAAAA  RRRRR   N  N N  II  N  N N  G  GGG   !            |
|           WW  WW  A    A  R   R   N   NN  II  N   NN  G    G                |
|           W    W  A    A  R    R  N    N  II  N    N   GGGG   !!!           |
|                                                                             |
|      For optimal performance we recommend to set                            |
|        NCORE= 4 - approx SQRT( number of cores)                             |
|      NCORE specifies how many cores store one orbital (NPAR=cpu/NCORE).     |
|      This setting can  greatly improve the performance of VASP for DFT.     |
|      The default,   NCORE=1            might be grossly inefficient         |
|      on modern multi-core architectures or massively parallel machines.     |
|      Do your own testing !!!!                                               |
|      Unfortunately you need to use the default for GW and RPA calculations. |
|      (for HF NCORE is supported but not extensively tested yet)             |
|                                                                             |
 ----------------------------------------------------------------------------- 


 ----------------------------------------------------------------------------- 
|                                                                             |
|           W    W    AA    RRRRR   N    N  II  N    N   GGGG   !!!           |
|           W    W   A  A   R    R  NN   N  II  NN   N  G    G  !!!           |
|           W    W  A    A  R    R  N N  N  II  N N  N  G       !!!           |
|           W WW W  AAAAAA  RRRRR   N  N N  II  N  N N  G  GGG   !            |
|           WW  WW  A    A  R   R   N   NN  II  N   NN  G    G                |
|           W    W  A    A  R    R  N    N  II  N    N   GGGG   !!!           |
|                                                                             |
|      You have enabled k-point parallelism (KPAR>1).                         |
|      This developmental code was originally  written by Paul Kent at ORNL,  |
|      and carefully double checked in Vienna.                                |
|      GW as well as linear response parallelism added by Martijn Marsman     |
|      and Georg Kresse.                                                      |
|      Carefully verify results versus KPAR=1.                                |
|      Report problems to Paul Kent and Vienna.                               |
|                                                                             |
 ----------------------------------------------------------------------------- 

 POTCAR:    PAW_PBE Ag 02Apr2005                  
   VRHFIN =Ag : s1 d10                                                          
   LEXCH  = PE                                                                  
   EATOM  =  1037.2675 eV,   76.2370 Ry                                         
                                                                                
   TITEL  = PAW_PBE Ag 02Apr2005                                                
   LULTRA =        F    use ultrasoft PP ?                                      
   IUNSCR =        1    unscreen: 0-lin 1-nonlin 2-no                           
   RPACOR =    2.000    partial core radius                                     
   POMASS =  107.868; ZVAL   =   11.000    mass and valenz                      
   RCORE  =    2.500    outmost cutoff radius                                   
   RWIGS  =    2.840; RWIGS  =    1.503    wigner-seitz radius (au A)           
   ENMAX  =  249.844; ENMIN  =  187.383 eV                                      
   ICORE  =        3    local potential                                         
   LCOR   =        T    correct aug charges                                     
   LPAW   =        T    paw PP                                                  
   EAUG   =  412.496                                                            
   DEXC   =    0.000                                                            
   RMAX   =    2.560    core radius for proj-oper                               
   RAUG   =    1.300    factor for augmentation sphere                          
   RDEP   =    2.576    radius for radial grids                                 
   RDEPT  =    2.072    core radius for aug-charge                              
                                                                                
   Atomic configuration                                                         
   12 entries                                                                   
     n  l   j            E        occ.                                          
     1  0  0.50    -25324.9161   2.0000                                         
     2  0  0.50     -3728.5341   2.0000                                         
     2  1  1.50     -3344.0404   6.0000                                         
     3  0  0.50      -683.5581   2.0000                                         
     3  1  1.50      -557.3225   6.0000                                         
     3  2  2.50      -358.3853  10.0000                                         
     4  0  0.50       -95.0341   2.0000                                         
     4  1  1.50       -58.5511   6.0000                                         
     4  2  2.50        -7.4440  10.0000                                         
     5  0  0.50        -4.4045   1.0000                                         
     5  1  0.50        -1.3606   0.0000                                         
     4  3  2.50        -1.3606   0.0000                                         
   Description                                                                  
     l       E           TYP  RCUT    TYP  RCUT                                 
     2     -7.4439781     23  2.400                                             
     2     -8.8045607     23  2.400                                             
     0     -4.4044681     23  2.400                                             
     0      1.9520038     23  2.400                                             
     1     -1.3605826     23  2.500                                             
     1     27.2116520     23  2.500                                             
     3     -4.0817478     23  2.400                                             
  local pseudopotential read in
  partial core-charges read in
  partial kinetic energy density read in
  atomic valenz-charges read in
  non local Contribution for L=           2  read in
    real space projection operators read in
  non local Contribution for L=           2  read in
    real space projection operators read in
  non local Contribution for L=           0  read in
    real space projection operators read in
  non local Contribution for L=           0  read in
    real space projection operators read in
  non local Contribution for L=           1  read in
    real space projection operators read in
  non local Contribution for L=           1  read in
    real space projection operators read in
    PAW grid and wavefunctions read in
 
   number of l-projection  operators is LMAX  =           6
   number of lm-projection operators is LMMAX =          18
 
 POTCAR:    PAW_PBE Se 06Sep2000                  
   VRHFIN =Se: s2p4                                                             
   LEXCH  = PE                                                                  
   EATOM  =   257.1286 eV,   18.8984 Ry                                         
                                                                                
   TITEL  = PAW_PBE Se 06Sep2000                                                
   LULTRA =        F    use ultrasoft PP ?                                      
   IUNSCR =        1    unscreen: 0-lin 1-nonlin 2-no                           
   RPACOR =    1.900    partial core radius                                     
   POMASS =   78.960; ZVAL   =    6.000    mass and valenz                      
   RCORE  =    2.100    outmost cutoff radius                                   
   RWIGS  =    2.200; RWIGS  =    1.164    wigner-seitz radius (au A)           
   ENMAX  =  211.555; ENMIN  =  158.666 eV                                      
   ICORE  =        3    local potential                                         
   LCOR   =        T    correct aug charges                                     
   LPAW   =        T    paw PP                                                  
   EAUG   =  446.842                                                            
   DEXC   =    0.000                                                            
   RMAX   =    2.147    core radius for proj-oper                               
   RAUG   =    1.300    factor for augmentation sphere                          
   RDEP   =    2.177    radius for radial grids                                 
   RDEPT  =    1.928    core radius for aug-charge                              
                                                                                
   Atomic configuration                                                         
   10 entries                                                                   
     n  l   j            E        occ.                                          
     1  0  0.50    -12503.4787   2.0000                                         
     2  0  0.50     -1606.9547   2.0000                                         
     2  1  1.50     -1413.3140   6.0000                                         
     3  0  0.50      -213.4885   2.0000                                         
     3  1  1.50      -152.9538   6.0000                                         
     3  2  2.50       -53.1221  10.0000                                         
     4  0  0.50       -17.2865   2.0000                                         
     4  1  0.50        -6.5110   4.0000                                         
     4  2  2.50        -6.8029   0.0000                                         
     4  3  2.50        -6.8029   0.0000                                         
   Description                                                                  
     l       E           TYP  RCUT    TYP  RCUT                                 
     0    -17.2865377     23  2.100                                             
     0    -15.3094411     23  2.100                                             
     1     -6.5110275     23  2.100                                             
     1     -0.0695192     23  2.100                                             
     2     -6.8029130     23  2.100                                             
     3     -1.3605826      7  2.100                                             
  local pseudopotential read in
  partial core-charges read in
  partial kinetic energy density read in
  atomic valenz-charges read in
  non local Contribution for L=           0  read in
    real space projection operators read in
  non local Contribution for L=           0  read in
    real space projection operators read in
  non local Contribution for L=           1  read in
    real space projection operators read in
  non local Contribution for L=           1  read in
    real space projection operators read in
  non local Contribution for L=           2  read in
    real space projection operators read in
    PAW grid and wavefunctions read in
 
   number of l-projection  operators is LMAX  =           5
   number of lm-projection operators is LMMAX =          13
 

 ----------------------------------------------------------------------------- 
|                                                                             |
|  ADVICE TO THIS USER RUNNING 'VASP/VAMP'   (HEAR YOUR MASTER'S VOICE ...):  |
|                                                                             |
|      You have a (more or less) 'large supercell' and for larger cells       |
|      it might be more efficient to use real space projection opertators     |
|      So try LREAL= Auto  in the INCAR   file.                               |
|      Mind:          For very  accurate calculation you might also keep the  |
|      reciprocal projection scheme          (i.e. LREAL=.FALSE.)             |
|                                                                             |
 ----------------------------------------------------------------------------- 


 ----------------------------------------------------------------------------- 
|                                                                             |
|  ADVICE TO THIS USER RUNNING 'VASP/VAMP'   (HEAR YOUR MASTER'S VOICE ...):  |
|                                                                             |
|      You enforced a specific xc-type in the INCAR file,                     |
|      a different type was found on the POTCAR file                          |
|          I HOPE YOU KNOW, WHAT YOU ARE  DOING                               |
|                                                                             |
 ----------------------------------------------------------------------------- 

  PAW_PBE Ag 02Apr2005                  :
 energy of atom  1       EATOM=-1037.2675
 kinetic energy error for atom=    0.0011 (will be added to EATOM!!)
  PAW_PBE Se 06Sep2000                  :
 energy of atom  2       EATOM= -257.1286
 kinetic energy error for atom=    0.0005 (will be added to EATOM!!)
 
 
 POSCAR: # Compound: Ag96Se48. Old comment: Ag2Se
  positions in direct lattice
  No initial velocities read in
 exchange correlation table for  LEXCH =       14
   RHO(1)=    0.500       N(1)  =     2000
   RHO(2)=  100.500       N(2)  =     4000
 


--------------------------------------------------------------------------------------------------------


 ion  position               nearest neighbor table
   1  0.430  0.172  0.332- 102 2.68 137 2.74 122 2.81  86 2.84 126 2.85  65 2.87  61 2.87  14 2.92

   2  0.930  0.172  0.332- 101 2.68 138 2.74 121 2.81  85 2.84 125 2.85  66 2.87  62 2.87  13 2.92

   3  0.430  0.672  0.332- 104 2.68 139 2.74 124 2.81  88 2.84 128 2.85  67 2.87  63 2.87  16 2.92

   4  0.930  0.672  0.332- 103 2.68 140 2.74 123 2.81  87 2.84 127 2.85  68 2.87  64 2.87  15 2.92

   5  0.430  0.172  0.666- 106 2.68 141 2.74 126 2.81  90 2.84 130 2.85  69 2.87  65 2.87  18 2.92

   6  0.930  0.172  0.666- 105 2.68 142 2.74 125 2.81  89 2.84 129 2.85  70 2.87  66 2.87  17 2.92

   7  0.430  0.672  0.666- 108 2.68 143 2.74 128 2.81  92 2.84 132 2.85  71 2.87  67 2.87  20 2.92

   8  0.930  0.672  0.666- 107 2.68 144 2.74 127 2.81  91 2.84 131 2.85  72 2.87  68 2.87  19 2.92

   9  0.430  0.172  0.999-  98 2.68 133 2.74 130 2.81  94 2.84 122 2.85  61 2.87  69 2.87  22 2.92

  10  0.930  0.172  0.999-  97 2.69 134 2.74 129 2.81  93 2.84 121 2.85  62 2.87  70 2.87  21 2.92

  11  0.430  0.672  0.999- 100 2.68 135 2.74 132 2.81  96 2.84 124 2.85  63 2.87  71 2.87  24 2.92

  12  0.930  0.672  0.999-  99 2.68 136 2.74 131 2.81  95 2.84 123 2.85  64 2.87  72 2.87  23 2.92

  13  0.070  0.328  0.332- 103 2.68 137 2.74 121 2.81  74 2.84 125 2.85  53 2.87  49 2.87   2 2.92

  14  0.570  0.328  0.332- 104 2.68 138 2.74 122 2.81  73 2.84 126 2.85  54 2.87  50 2.87   1 2.92

  15  0.070  0.828  0.332- 101 2.68 139 2.74 123 2.81  76 2.84 127 2.85  55 2.87  51 2.87   4 2.92

  16  0.570  0.828  0.332- 102 2.68 140 2.74 124 2.81  75 2.84 128 2.85  56 2.87  52 2.87   3 2.92

  17  0.070  0.328  0.666- 107 2.68 141 2.74 125 2.81  78 2.84 129 2.85  57 2.87  53 2.87   6 2.92

  18  0.570  0.328  0.666- 108 2.68 142 2.74 126 2.81  77 2.84 130 2.85  58 2.87  54 2.87   5 2.92

  19  0.070  0.828  0.666- 105 2.68 143 2.74 127 2.81  80 2.84 131 2.85  59 2.87  55 2.87   8 2.92

  20  0.570  0.828  0.666- 106 2.68 144 2.74 128 2.81  79 2.84 132 2.85  60 2.87  56 2.87   7 2.92

  21  0.070  0.328  0.999-  99 2.68 133 2.74 129 2.81  82 2.84 121 2.85  49 2.87  57 2.87  10 2.92

  22  0.570  0.328  0.999- 100 2.68 134 2.74 130 2.81  81 2.84 122 2.85  50 2.87  58 2.87   9 2.92

  23  0.070  0.828  0.999-  97 2.68 135 2.74 131 2.81  84 2.84 123 2.85  51 2.87  59 2.87  12 2.92

  24  0.570  0.828  0.999-  98 2.68 136 2.74 132 2.81  83 2.84 124 2.85  52 2.87  60 2.87  11 2.92

  25  0.320  0.422  0.056- 133 2.68 100 2.74 111 2.81  49 2.84 119 2.85  81 2.87  73 2.87  39 2.92

  26  0.820  0.422  0.056- 134 2.68  99 2.74 112 2.81  50 2.84 120 2.85  82 2.87  74 2.87  40 2.92

  27  0.320  0.922  0.056- 135 2.68  98 2.74 109 2.81  51 2.84 117 2.85  83 2.87  75 2.87  37 2.92

  28  0.820  0.922  0.056- 136 2.68  97 2.75 110 2.81  52 2.84 118 2.85  84 2.87  76 2.87  38 2.92

  29  0.320  0.422  0.390- 137 2.68 104 2.74 115 2.81  53 2.84 111 2.85  73 2.87  77 2.87  43 2.92

  30  0.820  0.422  0.390- 138 2.68 103 2.74 116 2.81  54 2.84 112 2.85  74 2.87  78 2.87  44 2.92

  31  0.320  0.922  0.390- 139 2.68 102 2.74 113 2.81  55 2.84 109 2.85  75 2.87  79 2.87  41 2.92

  32  0.820  0.922  0.390- 140 2.68 101 2.74 114 2.81  56 2.84 110 2.85  76 2.87  80 2.87  42 2.92

  33  0.320  0.422  0.723- 141 2.68 108 2.74 119 2.81  57 2.84 115 2.85  77 2.87  81 2.87  47 2.92

  34  0.820  0.422  0.723- 142 2.68 107 2.74 120 2.81  58 2.84 116 2.85  78 2.87  82 2.87  48 2.92

  35  0.320  0.922  0.723- 143 2.68 106 2.74 117 2.81  59 2.84 113 2.85  79 2.87  83 2.87  45 2.92

  36  0.820  0.922  0.723- 144 2.68 105 2.74 118 2.81  60 2.84 114 2.85  80 2.87  84 2.87  46 2.92

  37  0.180  0.078  0.056- 133 2.68  97 2.73 109 2.81  61 2.84 117 2.85  93 2.87  85 2.87  27 2.92

  38  0.680  0.078  0.056- 134 2.68  98 2.74 110 2.81  62 2.84 118 2.85  94 2.87  86 2.87  28 2.92

  39  0.180  0.578  0.056- 135 2.68  99 2.74 111 2.81  63 2.84 119 2.85  95 2.87  87 2.87  25 2.92

  40  0.680  0.578  0.056- 136 2.68 100 2.74 112 2.81  64 2.84 120 2.85  96 2.87  88 2.87  26 2.92

  41  0.180  0.078  0.390- 137 2.68 101 2.74 113 2.81  65 2.84 109 2.85  85 2.87  89 2.87  31 2.92

  42  0.680  0.078  0.390- 138 2.68 102 2.74 114 2.81  66 2.84 110 2.85  86 2.87  90 2.87  32 2.92

  43  0.180  0.578  0.390- 139 2.68 103 2.74 115 2.81  67 2.84 111 2.85  87 2.87  91 2.87  29 2.92

  44  0.680  0.578  0.390- 140 2.68 104 2.74 116 2.81  68 2.84 112 2.85  88 2.87  92 2.87  30 2.92

  45  0.180  0.078  0.723- 141 2.68 105 2.74 117 2.81  69 2.84 113 2.85  89 2.87  93 2.87  35 2.92

  46  0.680  0.078  0.723- 142 2.68 106 2.74 118 2.81  70 2.84 114 2.85  90 2.87  94 2.87  36 2.92

  47  0.180  0.578  0.723- 143 2.68 107 2.74 119 2.81  71 2.84 115 2.85  91 2.87  95 2.87  33 2.92

  48  0.680  0.578  0.723- 144 2.68 108 2.74 120 2.81  72 2.84 116 2.85  92 2.87  96 2.87  34 2.92

  49  0.180  0.328  0.166- 111 2.68 121 2.74 133 2.81  25 2.84 137 2.85  21 2.87  13 2.87  61 2.92

  50  0.680  0.328  0.166- 112 2.68 122 2.74 134 2.81  26 2.84 138 2.85  22 2.87  14 2.87  62 2.92

  51  0.180  0.828  0.166- 109 2.68 123 2.74 135 2.81  27 2.84 139 2.85  23 2.87  15 2.87  63 2.92

  52  0.680  0.828  0.166- 110 2.68 124 2.74 136 2.81  28 2.84 140 2.85  24 2.87  16 2.87  64 2.92

  53  0.180  0.328  0.499- 115 2.68 125 2.74 137 2.81  29 2.84 141 2.85  13 2.87  17 2.87  65 2.92

  54  0.680  0.328  0.499- 116 2.68 126 2.74 138 2.81  30 2.84 142 2.85  14 2.87  18 2.87  66 2.92

  55  0.180  0.828  0.499- 113 2.68 127 2.74 139 2.81  31 2.84 143 2.85  15 2.87  19 2.87  67 2.92

  56  0.680  0.828  0.499- 114 2.68 128 2.74 140 2.81  32 2.84 144 2.85  16 2.87  20 2.87  68 2.92

  57  0.180  0.328  0.832- 119 2.68 129 2.74 141 2.81  33 2.84 133 2.85  17 2.87  21 2.87  69 2.92

  58  0.680  0.328  0.832- 120 2.68 130 2.74 142 2.81  34 2.84 134 2.85  18 2.87  22 2.87  70 2.92

  59  0.180  0.828  0.832- 117 2.68 131 2.74 143 2.81  35 2.84 135 2.85  19 2.87  23 2.87  71 2.92

  60  0.680  0.828  0.832- 118 2.68 132 2.74 144 2.81  36 2.84 136 2.85  20 2.87  24 2.87  72 2.92

  61  0.320  0.172  0.166- 109 2.68 122 2.74 133 2.81  37 2.84 137 2.85   9 2.87   1 2.87  49 2.92

  62  0.820  0.172  0.166- 110 2.68 121 2.74 134 2.81  38 2.84 138 2.85  10 2.87   2 2.87  50 2.92

  63  0.320  0.672  0.166- 111 2.68 124 2.74 135 2.81  39 2.84 139 2.85  11 2.87   3 2.87  51 2.92

  64  0.820  0.672  0.166- 112 2.68 123 2.74 136 2.81  40 2.84 140 2.85  12 2.87   4 2.87  52 2.92

  65  0.320  0.172  0.499- 113 2.68 126 2.74 137 2.81  41 2.84 141 2.85   1 2.87   5 2.87  53 2.92

  66  0.820  0.172  0.499- 114 2.68 125 2.74 138 2.81  42 2.84 142 2.85   2 2.87   6 2.87  54 2.92

  67  0.320  0.672  0.499- 115 2.68 128 2.74 139 2.81  43 2.84 143 2.85   3 2.87   7 2.87  55 2.92

  68  0.820  0.672  0.499- 116 2.68 127 2.74 140 2.81  44 2.84 144 2.85   4 2.87   8 2.87  56 2.92

  69  0.320  0.172  0.832- 117 2.68 130 2.74 141 2.81  45 2.84 133 2.85   5 2.87   9 2.87  57 2.92

  70  0.820  0.172  0.832- 118 2.68 129 2.74 142 2.81  46 2.84 134 2.85   6 2.87  10 2.87  58 2.92

  71  0.320  0.672  0.832- 119 2.68 132 2.74 143 2.81  47 2.84 135 2.85   7 2.87  11 2.87  59 2.92

  72  0.820  0.672  0.832- 120 2.68 131 2.74 144 2.81  48 2.84 136 2.85   8 2.87  12 2.87  60 2.92

  73  0.430  0.422  0.223- 122 2.68 111 2.74 104 2.81  14 2.84 100 2.85  29 2.87  25 2.87  88 2.92

  74  0.930  0.422  0.223- 121 2.68 112 2.74 103 2.81  13 2.84  99 2.85  30 2.87  26 2.87  87 2.92

  75  0.430  0.922  0.223- 124 2.68 109 2.74 102 2.81  16 2.84  98 2.85  31 2.87  27 2.87  86 2.92

  76  0.930  0.922  0.223- 123 2.68 110 2.74 101 2.81  15 2.84  97 2.85  32 2.87  28 2.87  85 2.92

  77  0.430  0.422  0.556- 126 2.68 115 2.74 108 2.81  18 2.84 104 2.85  33 2.87  29 2.87  92 2.92

  78  0.930  0.422  0.556- 125 2.68 116 2.74 107 2.81  17 2.84 103 2.85  34 2.87  30 2.87  91 2.92

  79  0.430  0.922  0.556- 128 2.68 113 2.74 106 2.81  20 2.84 102 2.85  35 2.87  31 2.87  90 2.92

  80  0.930  0.922  0.556- 127 2.68 114 2.74 105 2.81  19 2.84 101 2.85  36 2.87  32 2.87  89 2.92

  81  0.430  0.422  0.890- 130 2.68 119 2.74 100 2.81  22 2.84 108 2.85  25 2.87  33 2.87  96 2.92

  82  0.930  0.422  0.890- 129 2.68 120 2.74  99 2.81  21 2.84 107 2.85  26 2.87  34 2.87  95 2.92

  83  0.430  0.922  0.890- 132 2.68 117 2.74  98 2.81  24 2.84 106 2.85  27 2.87  35 2.87  94 2.92

  84  0.930  0.922  0.890- 131 2.68 118 2.74  97 2.82  23 2.84 105 2.85  28 2.87  36 2.87  93 2.92

  85  0.070  0.078  0.223- 121 2.68 109 2.74 101 2.81   2 2.84  97 2.84  41 2.87  37 2.87  76 2.92

  86  0.570  0.078  0.223- 122 2.68 110 2.74 102 2.81   1 2.84  98 2.85  42 2.87  38 2.87  75 2.92

  87  0.070  0.578  0.223- 123 2.68 111 2.74 103 2.81   4 2.84  99 2.85  43 2.87  39 2.87  74 2.92

  88  0.570  0.578  0.223- 124 2.68 112 2.74 104 2.81   3 2.84 100 2.85  44 2.87  40 2.87  73 2.92

  89  0.070  0.078  0.556- 125 2.68 113 2.74 105 2.81   6 2.84 101 2.85  45 2.87  41 2.87  80 2.92

  90  0.570  0.078  0.556- 126 2.68 114 2.74 106 2.81   5 2.84 102 2.85  46 2.87  42 2.87  79 2.92

  91  0.070  0.578  0.556- 127 2.68 115 2.74 107 2.81   8 2.84 103 2.85  47 2.87  43 2.87  78 2.92

  92  0.570  0.578  0.556- 128 2.68 116 2.74 108 2.81   7 2.84 104 2.85  48 2.87  44 2.87  77 2.92

  93  0.070  0.078  0.890- 129 2.68 117 2.74  97 2.81  10 2.84 105 2.85  37 2.87  45 2.87  84 2.92

  94  0.570  0.078  0.890- 130 2.68 118 2.74  98 2.81   9 2.84 106 2.85  38 2.87  46 2.87  83 2.92

  95  0.070  0.578  0.890- 131 2.68 119 2.74  99 2.81  12 2.84 107 2.85  39 2.87  47 2.87  82 2.92

  96  0.570  0.578  0.890- 132 2.68 120 2.74 100 2.81  11 2.84 108 2.85  40 2.87  48 2.87  81 2.92

  97  0.000  0.000  0.055-  23 2.68  10 2.69  37 2.73  28 2.75  93 2.81  84 2.82  85 2.84  76 2.85

  98  0.500  0.000  0.055-   9 2.68  24 2.68  27 2.74  38 2.74  83 2.81  94 2.81  86 2.85  75 2.85

  99  0.000  0.500  0.055-  12 2.68  21 2.68  26 2.74  39 2.74  82 2.81  95 2.81  87 2.85  74 2.85

 100  0.500  0.500  0.055-  11 2.68  22 2.68  25 2.74  40 2.74  81 2.81  96 2.81  88 2.85  73 2.85

 101  0.000  0.000  0.388-   2 2.68  15 2.68  32 2.74  41 2.74  76 2.81  85 2.81  80 2.85  89 2.85

 102  0.500  0.000  0.388-   1 2.68  16 2.68  31 2.74  42 2.74  75 2.81  86 2.81  79 2.85  90 2.85

 103  0.000  0.500  0.388-   4 2.68  13 2.68  30 2.74  43 2.74  74 2.81  87 2.81  78 2.85  91 2.85

 104  0.500  0.500  0.388-   3 2.68  14 2.68  29 2.74  44 2.74  73 2.81  88 2.81  77 2.85  92 2.85

 105  0.000  0.000  0.721-   6 2.68  19 2.68  36 2.74  45 2.74  80 2.81  89 2.81  84 2.85  93 2.85

 106  0.500  0.000  0.721-   5 2.68  20 2.68  35 2.74  46 2.74  79 2.81  90 2.81  83 2.85  94 2.85

 107  0.000  0.500  0.721-   8 2.68  17 2.68  34 2.74  47 2.74  78 2.81  91 2.81  82 2.85  95 2.85

 108  0.500  0.500  0.721-   7 2.68  18 2.68  33 2.74  48 2.74  77 2.81  92 2.81  81 2.85  96 2.85

 109  0.250  0.000  0.221-  51 2.68  61 2.68  75 2.74  85 2.74  27 2.81  37 2.81  31 2.85  41 2.85

 110  0.750  0.000  0.221-  52 2.68  62 2.68  76 2.74  86 2.74  28 2.81  38 2.81  32 2.85  42 2.85

 111  0.250  0.500  0.221-  49 2.68  63 2.68  73 2.74  87 2.74  25 2.81  39 2.81  29 2.85  43 2.85

 112  0.750  0.500  0.221-  50 2.68  64 2.68  74 2.74  88 2.74  26 2.81  40 2.81  30 2.85  44 2.85

 113  0.250  0.000  0.555-  55 2.68  65 2.68  79 2.74  89 2.74  31 2.81  41 2.81  35 2.85  45 2.85

 114  0.750  0.000  0.555-  56 2.68  66 2.68  80 2.74  90 2.74  32 2.81  42 2.81  36 2.85  46 2.85

 115  0.250  0.500  0.555-  53 2.68  67 2.68  77 2.74  91 2.74  29 2.81  43 2.81  33 2.85  47 2.85

 116  0.750  0.500  0.555-  54 2.68  68 2.68  78 2.74  92 2.74  30 2.81  44 2.81  34 2.85  48 2.85

 117  0.250  0.000  0.888-  59 2.68  69 2.68  83 2.74  93 2.74  35 2.81  45 2.81  37 2.85  27 2.85

 118  0.750  0.000  0.888-  60 2.68  70 2.68  84 2.74  94 2.74  36 2.81  46 2.81  38 2.85  28 2.85

 119  0.250  0.500  0.888-  57 2.68  71 2.68  81 2.74  95 2.74  33 2.81  47 2.81  39 2.85  25 2.85

 120  0.750  0.500  0.888-  58 2.68  72 2.68  82 2.74  96 2.74  34 2.81  48 2.81  40 2.85  26 2.85

 121  0.000  0.250  0.167-  74 2.68  85 2.68  49 2.74  62 2.74   2 2.81  13 2.81  10 2.85  21 2.85

 122  0.500  0.250  0.167-  73 2.68  86 2.68  50 2.74  61 2.74   1 2.81  14 2.81   9 2.85  22 2.85

 123  0.000  0.750  0.167-  76 2.68  87 2.68  51 2.74  64 2.74   4 2.81  15 2.81  12 2.85  23 2.85

 124  0.500  0.750  0.167-  75 2.68  88 2.68  52 2.74  63 2.74   3 2.81  16 2.81  11 2.85  24 2.85

 125  0.000  0.250  0.501-  78 2.68  89 2.68  53 2.74  66 2.74   6 2.81  17 2.81  13 2.85   2 2.85

 126  0.500  0.250  0.501-  77 2.68  90 2.68  54 2.74  65 2.74   5 2.81  18 2.81  14 2.85   1 2.85

 127  0.000  0.750  0.501-  80 2.68  91 2.68  55 2.74  68 2.74   8 2.81  19 2.81  15 2.85   4 2.85

 128  0.500  0.750  0.501-  79 2.68  92 2.68  56 2.74  67 2.74   7 2.81  20 2.81  16 2.85   3 2.85

 129  0.000  0.250  0.834-  82 2.68  93 2.68  57 2.74  70 2.74  10 2.81  21 2.81  17 2.85   6 2.85

 130  0.500  0.250  0.834-  81 2.68  94 2.68  58 2.74  69 2.74   9 2.81  22 2.81  18 2.85   5 2.85

 131  0.000  0.750  0.834-  84 2.68  95 2.68  59 2.74  72 2.74  12 2.81  23 2.81  19 2.85   8 2.85

 132  0.500  0.750  0.834-  83 2.68  96 2.68  60 2.74  71 2.74  11 2.81  24 2.81  20 2.85   7 2.85

 133  0.250  0.250  0.001-  25 2.68  37 2.68   9 2.74  21 2.74  49 2.81  61 2.81  57 2.85  69 2.85

 134  0.750  0.250  0.001-  26 2.68  38 2.68  10 2.74  22 2.74  50 2.81  62 2.81  58 2.85  70 2.85

 135  0.250  0.750  0.001-  27 2.68  39 2.68  11 2.74  23 2.74  51 2.81  63 2.81  59 2.85  71 2.85

 136  0.750  0.750  0.001-  28 2.68  40 2.68  12 2.74  24 2.74  52 2.81  64 2.81  60 2.85  72 2.85

 137  0.250  0.250  0.334-  29 2.68  41 2.68   1 2.74  13 2.74  53 2.81  65 2.81  61 2.85  49 2.85

 138  0.750  0.250  0.334-  30 2.68  42 2.68   2 2.74  14 2.74  54 2.81  66 2.81  62 2.85  50 2.85

 139  0.250  0.750  0.334-  31 2.68  43 2.68   3 2.74  15 2.74  55 2.81  67 2.81  63 2.85  51 2.85

 140  0.750  0.750  0.334-  32 2.68  44 2.68   4 2.74  16 2.74  56 2.81  68 2.81  64 2.85  52 2.85

 141  0.250  0.250  0.667-  33 2.68  45 2.68   5 2.74  17 2.74  57 2.81  69 2.81  65 2.85  53 2.85

 142  0.750  0.250  0.667-  34 2.68  46 2.68   6 2.74  18 2.74  58 2.81  70 2.81  66 2.85  54 2.85

 143  0.250  0.750  0.667-  35 2.68  47 2.68   7 2.74  19 2.74  59 2.81  71 2.81  67 2.85  55 2.85

 144  0.750  0.750  0.667-  36 2.68  48 2.68   8 2.74  20 2.74  60 2.81  72 2.81  68 2.85  56 2.85

 

IMPORTANT INFORMATION: All symmetrisations will be switched off!
NOSYMM: (Re-)initialisation of all symmetry stuff for point group C_1.

 
 
 KPOINTS: # No comment                            

Automatic generation of k-mesh.
Space group operators:
 irot       det(A)        alpha          n_x          n_y          n_z        tau_x        tau_y        tau_z
    1     1.000000     0.000000     1.000000     0.000000     0.000000     0.000000     0.000000     0.000000
 
 Subroutine IBZKPT returns following result:
 ===========================================
 
 Found      8 irreducible k-points:
 
 Following reciprocal coordinates:
            Coordinates               Weight
  0.000000  0.000000  0.000000      1.000000
  0.500000 -0.000000  0.000000      1.000000
  0.000000  0.500000  0.000000      1.000000
  0.500000  0.500000  0.000000      1.000000
  0.000000  0.000000  0.500000      1.000000
  0.500000 -0.000000  0.500000      1.000000
  0.000000  0.500000  0.500000      1.000000
  0.500000  0.500000  0.500000      1.000000
 
 Following cartesian coordinates:
            Coordinates               Weight
  0.000000  0.000000  0.000000      1.000000
  0.035688  0.000004  0.000000      1.000000
 -0.000004  0.036319  0.000000      1.000000
  0.035684  0.036323  0.000000      1.000000
  0.000000  0.000000  0.034364      1.000000
  0.035688  0.000004  0.034364      1.000000
 -0.000004  0.036319  0.034364      1.000000
  0.035684  0.036323  0.034364      1.000000
 


--------------------------------------------------------------------------------------------------------




 Dimension of arrays:
   k-points           NKPTS =      8   k-points in BZ     NKDIM =      8   number of bands    NBANDS=    806
   number of dos      NEDOS =    301   number of ions     NIONS =    144
   non local maximal  LDIM  =      6   non local SUM 2l+1 LMDIM =     18
   total plane-waves  NPLWV = ******
   max r-space proj   IRMAX =      1   max aug-charges    IRDMAX= 254476
   dimension x,y,z NGX =   120 NGY =  120 NGZ =  126
   dimension x,y,z NGXF=   240 NGYF=  240 NGZF=  252
   support grid    NGXF=   480 NGYF=  480 NGZF=  504
   ions per type =              96  48
   NGX,Y,Z   is equivalent  to a cutoff of  14.24, 14.49, 14.40 a.u.
   NGXF,Y,Z  is equivalent  to a cutoff of  28.48, 28.98, 28.79 a.u.

 SYSTEM =  unknown system                          
 POSCAR =  # Compound: Ag96Se48. Old comment: Ag2Se

 Startparameter for this run:
   NWRITE =      2    write-flag & timer
   PREC   = accura    normal or accurate (medium, high low for compatibility)
   ISTART =      0    job   : 0-new  1-cont  2-samecut
   ICHARG =      2    charge: 1-file 2-atom 10-const
   ISPIN  =      1    spin polarized calculation?
   LNONCOLLINEAR =      F non collinear calculations
   LSORBIT =      F    spin-orbit coupling
   INIWAV =      1    electr: 0-lowe 1-rand  2-diag
   LASPH  =      T    aspherical Exc in radial PAW
   METAGGA=      F    non-selfconsistent MetaGGA calc.

 Electronic Relaxation 1
   ENCUT  =  650.0 eV  47.77 Ry    6.91 a.u.  29.12 28.62 30.25*2*pi/ulx,y,z
   ENINI  =  650.0     initial cutoff
   ENAUG  =  446.8 eV  augmentation charge cutoff
   NELM   =    200;   NELMIN=  8; NELMDL= -5     # of ELM steps 
   EDIFF  = 0.1E-07   stopping-criterion for ELM
   LREAL  =      F    real-space projection
   NLSPLINE    = F    spline interpolate recip. space projectors
   LCOMPAT=      F    compatible to vasp.4.4
   GGA_COMPAT  = T    GGA compatible to vasp.4.4-vasp.4.6
   LMAXPAW     = -100 max onsite density
   LMAXMIX     =    2 max onsite mixed and CHGCAR
   VOSKOWN=      0    Vosko Wilk Nusair interpolation
   ROPT   =    0.00000   0.00000
 Ionic relaxation
   EDIFFG = 0.1E-06   stopping-criterion for IOM
   NSW    =      0    number of steps for IOM
   NBLOCK =      1;   KBLOCK =      1    inner block; outer block 
   IBRION =     -1    ionic relax: 0-MD 1-quasi-New 2-CG
   NFREE  =      0    steps in history (QN), initial steepest desc. (CG)
   ISIF   =      3    stress and relaxation
   IWAVPR =     10    prediction:  0-non 1-charg 2-wave 3-comb
   ISYM   =      0    0-nonsym 1-usesym 2-fastsym
   LCORR  =      T    Harris-Foulkes like correction to forces

   POTIM  = 0.5000    time-step for ionic-motion
   TEIN   =    0.0    initial temperature
   TEBEG  =    0.0;   TEEND  =   0.0 temperature during run
   SMASS  =  -3.00    Nose mass-parameter (am)
   estimated Nose-frequenzy (Omega)   =  0.10E-29 period in steps =****** mass=  -0.449E-26a.u.
   SCALEE = 1.0000    scale energy and forces
   NPACO  =    256;   APACO  = 16.0  distance and # of slots for P.C.
   PSTRESS=    0.0 pullay stress

  Mass of Ions in am
   POMASS = 107.87 78.96
  Ionic Valenz
   ZVAL   =  11.00  6.00
  Atomic Wigner-Seitz radii
   RWIGS  =  -1.00 -1.00
  virtual crystal weights 
   VCA    =   1.00  1.00
   NELECT =    1344.0000    total number of electrons
   NUPDOWN=      -1.0000    fix difference up-down

 DOS related values:
   EMIN   =  10.00;   EMAX   =-10.00  energy-range for DOS
   EFERMI =   0.00
   ISMEAR =     0;   SIGMA  =   0.05  broadening in eV -4-tet -1-fermi 0-gaus

 Electronic relaxation 2 (details)
   IALGO  =     38    algorithm
   LDIAG  =      T    sub-space diagonalisation (order eigenvalues)
   LSUBROT=      F    optimize rotation matrix (better conditioning)
   TURBO    =      0    0=normal 1=particle mesh
   IRESTART =      0    0=no restart 2=restart with 2 vectors
   NREBOOT  =      0    no. of reboots
   NMIN     =      0    reboot dimension
   EREF     =   0.00    reference energy to select bands
   IMIX   =      4    mixing-type and parameters
     AMIX     =   0.40;   BMIX     =  1.00
     AMIX_MAG =   1.60;   BMIX_MAG =  1.00
     AMIN     =   0.10
     WC   =   100.;   INIMIX=   1;  MIXPRE=   1;  MAXMIX= -45

 Intra band minimization:
   WEIMIN = 0.0000     energy-eigenvalue tresh-hold
   EBREAK =  0.31E-11  absolut break condition
   DEPER  =   0.30     relativ break condition  

   TIME   =   0.40     timestep for ELM

  volume/ion in A,a.u.               =      19.49       131.52
  Fermi-wavevector in a.u.,A,eV,Ry     =   1.280824  2.420406 22.320485  1.640509
  Thomas-Fermi vector in A             =   2.413229
 
 Write flags
   LWAVE        =      F    write WAVECAR
   LDOWNSAMPLE  =      F    k-point downsampling of WAVECAR
   LCHARG       =      T    write CHGCAR
   LVTOT        =      F    write LOCPOT, total local potential
   LVHAR        =      F    write LOCPOT, Hartree potential only
   LELF         =      F    write electronic localiz. function (ELF)
   LORBIT       =      0    0 simple, 1 ext, 2 COOP (PROOUT), +10 PAW based schemes


 Dipole corrections
   LMONO  =      F    monopole corrections only (constant potential shift)
   LDIPOL =      F    correct potential (dipole corrections)
   IDIPOL =      0    1-x, 2-y, 3-z, 4-all directions 
   EPSILON=  1.0000000 bulk dielectric constant

 Exchange correlation treatment:
   GGA     =    PS    GGA type
   LEXCH   =    14    internal setting for exchange type
   VOSKOWN=      0    Vosko Wilk Nusair interpolation
   LHFCALC =     F    Hartree Fock is set to
   LHFONE  =     F    Hartree Fock one center treatment
   AEXX    =    0.0000 exact exchange contribution

 Linear response parameters
   LEPSILON=     F    determine dielectric tensor
   LRPA    =     F    only Hartree local field effects (RPA)
   LNABLA  =     F    use nabla operator in PAW spheres
   LVEL    =     F    velocity operator in full k-point grid
   LINTERFAST=   F  fast interpolation
   KINTER  =     0    interpolate to denser k-point grid
   CSHIFT  =0.1000    complex shift for real part using Kramers Kronig
   OMEGAMAX=  -1.0    maximum frequency
   DEG_THRESHOLD= 0.2000000E-02 threshold for treating states as degnerate
   RTIME   =   -0.100 relaxation time in fs
  (WPLASMAI=    0.000 imaginary part of plasma frequency in eV, 0.658/RTIME)
   DFIELD  = 0.0000000 0.0000000 0.0000000 field for delta impulse in time
 
 Orbital magnetization related:
   ORBITALMAG=     F  switch on orbital magnetization
   LCHIMAG   =     F  perturbation theory with respect to B field
   DQ        =  0.001000  dq finite difference perturbation B field
   LLRAUG    =     F  two centre corrections for induced B field



--------------------------------------------------------------------------------------------------------


 Static calculation
 charge density and potential will be updated during run
 non-spin polarized calculation
 Variant of blocked Davidson
 Davidson routine will perform the subspace rotation
 perform sub-space diagonalisation
    after iterative eigenvector-optimisation
 modified Broyden-mixing scheme, WC =      100.0
 initial mixing is a Kerker type mixing with AMIX =  0.4000 and BMIX =      1.0000
 Hartree-type preconditioning will be used
 using additional bands          134
 reciprocal scheme for non local part
 use partial core corrections
 calculate Harris-corrections to forces 
   (improved forces if not selfconsistent)
 use gradient corrections 
 use of overlap-Matrix (Vanderbilt PP)
 Gauss-broadening in eV      SIGMA  =   0.05


--------------------------------------------------------------------------------------------------------


  energy-cutoff  :      650.00
  volume of cell :     2806.44
      direct lattice vectors                 reciprocal lattice vectors
    14.010395980  0.001391380  0.000000000     0.071375569  0.000007787  0.000000000
    -0.001501960 13.766910920  0.000000000    -0.000007214  0.072637936  0.000000000
     0.000000000  0.000000000 14.550193860     0.000000000  0.000000000  0.068727607

  length of vectors
    14.010396049 13.766911002 14.550193860     0.071375570  0.072637936  0.068727607


 
 k-points in units of 2pi/SCALE and weight: # No comment                            
   0.00000000  0.00000000  0.00000000       0.125
   0.03568778  0.00000389  0.00000000       0.125
  -0.00000361  0.03631897  0.00000000       0.125
   0.03568418  0.03632286  0.00000000       0.125
   0.00000000  0.00000000  0.03436380       0.125
   0.03568778  0.00000389  0.03436380       0.125
  -0.00000361  0.03631897  0.03436380       0.125
   0.03568418  0.03632286  0.03436380       0.125
 
 k-points in reciprocal lattice and weights: # No comment                            
   0.00000000  0.00000000  0.00000000       0.125
   0.50000000 -0.00000000  0.00000000       0.125
   0.00000000  0.50000000  0.00000000       0.125
   0.50000000  0.50000000  0.00000000       0.125
   0.00000000  0.00000000  0.50000000       0.125
   0.50000000 -0.00000000  0.50000000       0.125
   0.00000000  0.50000000  0.50000000       0.125
   0.50000000  0.50000000  0.50000000       0.125
 
 position of ions in fractional coordinates (direct lattice) 
   0.42987898  0.17167077  0.33247735
   0.92987898  0.17167077  0.33247735
   0.42987898  0.67167077  0.33247735
   0.92987898  0.67167077  0.33247735
   0.42987898  0.17167077  0.66581068
   0.92987898  0.17167077  0.66581068
   0.42987898  0.67167077  0.66581068
   0.92987898  0.67167077  0.66581068
   0.42987898  0.17167077  0.99914401
   0.92987898  0.17167077  0.99914401
   0.42987898  0.67167077  0.99914401
   0.92987898  0.67167077  0.99914401
   0.07012102  0.32832923  0.33247735
   0.57012102  0.32832923  0.33247735
   0.07012102  0.82832923  0.33247735
   0.57012102  0.82832923  0.33247735
   0.07012102  0.32832923  0.66581068
   0.57012102  0.32832923  0.66581068
   0.07012102  0.82832923  0.66581068
   0.57012102  0.82832923  0.66581068
   0.07012102  0.32832923  0.99914401
   0.57012102  0.32832923  0.99914401
   0.07012102  0.82832923  0.99914401
   0.57012102  0.82832923  0.99914401
   0.32012053  0.42167367  0.05641075
   0.82012053  0.42167367  0.05641075
   0.32012053  0.92167367  0.05641075
   0.82012053  0.92167367  0.05641075
   0.32012053  0.42167367  0.38974408
   0.82012053  0.42167367  0.38974408
   0.32012053  0.92167367  0.38974408
   0.82012053  0.92167367  0.38974408
   0.32012053  0.42167367  0.72307741
   0.82012053  0.42167367  0.72307741
   0.32012053  0.92167367  0.72307741
   0.82012053  0.92167367  0.72307741
   0.17987947  0.07832633  0.05641075
   0.67987947  0.07832633  0.05641075
   0.17987947  0.57832633  0.05641075
   0.67987947  0.57832633  0.05641075
   0.17987947  0.07832633  0.38974408
   0.67987947  0.07832633  0.38974408
   0.17987947  0.57832633  0.38974408
   0.67987947  0.57832633  0.38974408
   0.17987947  0.07832633  0.72307741
   0.67987947  0.07832633  0.72307741
   0.17987947  0.57832633  0.72307741
   0.67987947  0.57832633  0.72307741
   0.17987776  0.32832369  0.16580856
   0.67987776  0.32832369  0.16580856
   0.17987776  0.82832369  0.16580856
   0.67987776  0.82832369  0.16580856
   0.17987776  0.32832369  0.49914189
   0.67987776  0.32832369  0.49914189
   0.17987776  0.82832369  0.49914189
   0.67987776  0.82832369  0.49914189
   0.17987776  0.32832369  0.83247522
   0.67987776  0.32832369  0.83247522
   0.17987776  0.82832369  0.83247522
   0.67987776  0.82832369  0.83247522
   0.32012224  0.17167631  0.16580856
   0.82012224  0.17167631  0.16580856
   0.32012224  0.67167631  0.16580856
   0.82012224  0.67167631  0.16580856
   0.32012224  0.17167631  0.49914189
   0.82012224  0.17167631  0.49914189
   0.32012224  0.67167631  0.49914189
   0.82012224  0.67167631  0.49914189
   0.32012224  0.17167631  0.83247522
   0.82012224  0.17167631  0.83247522
   0.32012224  0.67167631  0.83247522
   0.82012224  0.67167631  0.83247522
   0.42987656  0.42167494  0.22308000
   0.92987656  0.42167494  0.22308000
   0.42987656  0.92167494  0.22308000
   0.92987656  0.92167494  0.22308000
   0.42987656  0.42167494  0.55641333
   0.92987656  0.42167494  0.55641333
   0.42987656  0.92167494  0.55641333
   0.92987656  0.92167494  0.55641333
   0.42987656  0.42167494  0.88974666
   0.92987656  0.42167494  0.88974666
   0.42987656  0.92167494  0.88974666
   0.92987656  0.92167494  0.88974666
   0.07012344  0.07832506  0.22308000
   0.57012344  0.07832506  0.22308000
   0.07012344  0.57832506  0.22308000
   0.57012344  0.57832506  0.22308000
   0.07012344  0.07832506  0.55641333
   0.57012344  0.07832506  0.55641333
   0.07012344  0.57832506  0.55641333
   0.57012344  0.57832506  0.55641333
   0.07012344  0.07832506  0.88974666
   0.57012344  0.07832506  0.88974666
   0.07012344  0.57832506  0.88974666
   0.57012344  0.57832506  0.88974666
   0.00049507  0.00000000  0.05528872
   0.50000000  0.00000000  0.05479365
   0.00000000  0.50000000  0.05479365
   0.50000000  0.50000000  0.05479365
   0.00000000  0.00000000  0.38812698
   0.50000000  0.00000000  0.38812698
   0.00000000  0.50000000  0.38812698
   0.50000000  0.50000000  0.38812698
   0.00000000  0.00000000  0.72146032
   0.50000000  0.00000000  0.72146032
   0.00000000  0.50000000  0.72146032
   0.50000000  0.50000000  0.72146032
   0.25000000  0.00000000  0.22145206
   0.75000000  0.00000000  0.22145206
   0.25000000  0.50000000  0.22145206
   0.75000000  0.50000000  0.22145206
   0.25000000  0.00000000  0.55478539
   0.75000000  0.00000000  0.55478539
   0.25000000  0.50000000  0.55478539
   0.75000000  0.50000000  0.55478539
   0.25000000  0.00000000  0.88811873
   0.75000000  0.00000000  0.88811873
   0.25000000  0.50000000  0.88811873
   0.75000000  0.50000000  0.88811873
   0.00000000  0.25000000  0.16743769
   0.50000000  0.25000000  0.16743769
   0.00000000  0.75000000  0.16743769
   0.50000000  0.75000000  0.16743769
   0.00000000  0.25000000  0.50077102
   0.50000000  0.25000000  0.50077102
   0.00000000  0.75000000  0.50077102
   0.50000000  0.75000000  0.50077102
   0.00000000  0.25000000  0.83410435
   0.50000000  0.25000000  0.83410435
   0.00000000  0.75000000  0.83410435
   0.50000000  0.75000000  0.83410435
   0.25000000  0.25000000  0.00076332
   0.75000000  0.25000000  0.00076332
   0.25000000  0.75000000  0.00076332
   0.75000000  0.75000000  0.00076332
   0.25000000  0.25000000  0.33409665
   0.75000000  0.25000000  0.33409665
   0.25000000  0.75000000  0.33409665
   0.75000000  0.75000000  0.33409665
   0.25000000  0.25000000  0.66742999
   0.75000000  0.25000000  0.66742999
   0.25000000  0.75000000  0.66742999
   0.75000000  0.75000000  0.66742999
 
 position of ions in cartesian coordinates  (Angst):
   6.02251689  2.36397432  4.83760985
  13.02771488  2.36467001  4.83760985
   6.02176591  9.24742978  4.83760985
  13.02696390  9.24812547  4.83760985
   6.02251689  2.36397432  9.68767447
  13.02771488  2.36467001  9.68767447
   6.02176591  9.24742978  9.68767447
  13.02696390  9.24812547  9.68767447
   6.02251689  2.36397432 14.53773909
  13.02771488  2.36467001 14.53773909
   6.02176591  9.24742978 14.53773909
  13.02696390  9.24812547 14.53773909
   0.98193012  4.52017683  4.83760985
   7.98712811  4.52087252  4.83760985
   0.98117914 11.40363229  4.83760985
   7.98637713 11.40432798  4.83760985
   0.98193012  4.52017683  9.68767447
   7.98712811  4.52087252  9.68767447
   0.98117914 11.40363229  9.68767447
   7.98637713 11.40432798  9.68767447
   0.98193012  4.52017683 14.53773909
   7.98712811  4.52087252 14.53773909
   0.98117914 11.40363229 14.53773909
   7.98637713 11.40432798 14.53773909
   4.48438198  5.80558926  0.82078730
  11.48957997  5.80628495  0.82078730
   4.48363100 12.68904472  0.82078730
  11.48882899 12.68974041  0.82078730
   4.48438198  5.80558926  5.67085192
  11.48957997  5.80628495  5.67085192
   4.48363100 12.68904472  5.67085192
  11.48882899 12.68974041  5.67085192
   4.48438198  5.80558926 10.52091654
  11.48957997  5.80628495 10.52091654
   4.48363100 12.68904472 10.52091654
  11.48882899 12.68974041 10.52091654
   2.52006503  1.07856189  0.82078730
   9.52526302  1.07925758  0.82078730
   2.51931405  7.96201735  0.82078730
   9.52451204  7.96271304  0.82078730
   2.52006503  1.07856189  5.67085192
   9.52526302  1.07925758  5.67085192
   2.51931405  7.96201735  5.67085192
   9.52451204  7.96271304  5.67085192
   2.52006503  1.07856189 10.52091654
   9.52526302  1.07925758 10.52091654
   2.51931405  7.96201735 10.52091654
   9.52451204  7.96271304 10.52091654
   2.51966552  4.52025327  2.41254664
   9.52486351  4.52094896  2.41254664
   2.51891454 11.40370873  2.41254664
   9.52411253 11.40440442  2.41254664
   2.51966552  4.52025327  7.26261126
   9.52486351  4.52094896  7.26261126
   2.51891454 11.40370873  7.26261126
   9.52411253 11.40440442  7.26261126
   2.51966552  4.52025327 12.11267588
   9.52486351  4.52094896 12.11267588
   2.51891454 11.40370873 12.11267588
   9.52411253 11.40440442 12.11267588
   4.48478149  2.36389788  2.41254664
  11.48997948  2.36459357  2.41254664
   4.48403051  9.24735334  2.41254664
  11.48922850  9.24804903  2.41254664
   4.48478149  2.36389788  7.26261126
  11.48997948  2.36459357  7.26261126
   4.48403051  9.24735334  7.26261126
  11.48922850  9.24804903  7.26261126
   4.48478149  2.36389788 12.11267588
  11.48997948  2.36459357 12.11267588
   4.48403051  9.24735334 12.11267588
  11.48922850  9.24804903 12.11267588
   6.02210749  5.80575953  3.24585720
  13.02730548  5.80645522  3.24585720
   6.02135651 12.68921499  3.24585720
  13.02655450 12.68991068  3.24585720
   6.02210749  5.80575953  8.09592182
  13.02730548  5.80645522  8.09592182
   6.02135651 12.68921499  8.09592182
  13.02655450 12.68991068  8.09592182
   6.02210749  5.80575953 12.94598644
  13.02730548  5.80645522 12.94598644
   6.02135651 12.68921499 12.94598644
  13.02655450 12.68991068 12.94598644
   0.98233952  1.07839162  3.24585720
   7.98753751  1.07908731  3.24585720
   0.98158854  7.96184708  3.24585720
   7.98678653  7.96254277  3.24585720
   0.98233952  1.07839162  8.09592182
   7.98753751  1.07908731  8.09592182
   0.98158854  7.96184708  8.09592182
   7.98678653  7.96254277  8.09592182
   0.98233952  1.07839162 12.94598644
   7.98753751  1.07908731 12.94598644
   0.98158854  7.96184708 12.94598644
   7.98678653  7.96254277 12.94598644
   0.00693619  0.00000069  0.80446166
   7.00519799  0.00069569  0.79725823
  -0.00075098  6.88345546  0.79725823
   7.00444701  6.88415115  0.79725823
   0.00000000  0.00000000  5.64732285
   7.00519799  0.00069569  5.64732285
  -0.00075098  6.88345546  5.64732285
   7.00444701  6.88415115  5.64732285
   0.00000000  0.00000000 10.49738747
   7.00519799  0.00069569 10.49738747
  -0.00075098  6.88345546 10.49738747
   7.00444701  6.88415115 10.49738747
   3.50259900  0.00034785  3.22217040
  10.50779699  0.00104353  3.22217040
   3.50184802  6.88380331  3.22217040
  10.50704601  6.88449900  3.22217040
   3.50259900  0.00034785  8.07223502
  10.50779699  0.00104353  8.07223502
   3.50184802  6.88380331  8.07223502
  10.50704601  6.88449900  8.07223502
   3.50259900  0.00034785 12.92229964
  10.50779699  0.00104353 12.92229964
   3.50184802  6.88380331 12.92229964
  10.50704601  6.88449900 12.92229964
  -0.00037549  3.44172773  2.43625080
   7.00482250  3.44242342  2.43625080
  -0.00112647 10.32518319  2.43625080
   7.00407152 10.32587888  2.43625080
  -0.00037549  3.44172773  7.28631542
   7.00482250  3.44242342  7.28631542
  -0.00112647 10.32518319  7.28631542
   7.00407152 10.32587888  7.28631542
  -0.00037549  3.44172773 12.13638004
   7.00482250  3.44242342 12.13638004
  -0.00112647 10.32518319 12.13638004
   7.00407152 10.32587888 12.13638004
   3.50222350  3.44207558  0.01110645
  10.50742150  3.44277127  0.01110645
   3.50147253 10.32553104  0.01110645
  10.50667051 10.32622673  0.01110645
   3.50222350  3.44207558  4.86117107
  10.50742150  3.44277127  4.86117107
   3.50147253 10.32553104  4.86117107
  10.50667051 10.32622673  4.86117107
   3.50222350  3.44207558  9.71123569
  10.50742150  3.44277127  9.71123569
   3.50147253 10.32553104  9.71123569
  10.50667051 10.32622673  9.71123569
 


--------------------------------------------------------------------------------------------------------


 k-point  1 :   0.0000 0.0000 0.0000  plane waves:  105523
 k-point  2 :   0.5000-0.0000 0.0000  plane waves:  105722
 k-point  3 :   0.0000 0.5000 0.0000  plane waves:  105594
 k-point  4 :   0.5000 0.5000 0.0000  plane waves:  105596
 k-point  5 :   0.0000 0.0000 0.5000  plane waves:  105636
 k-point  6 :   0.5000-0.0000 0.5000  plane waves:  105608
 k-point  7 :   0.0000 0.5000 0.5000  plane waves:  105704
 k-point  8 :   0.5000 0.5000 0.5000  plane waves:  105564

 maximum and minimum number of plane-waves per node :     10604    10527

 maximum number of plane-waves:    105722
 maximum index in each direction: 
   IXMAX=   29   IYMAX=   28   IZMAX=   30
   IXMIN=  -29   IYMIN=  -29   IZMIN=  -30


 parallel 3D FFT for wavefunctions:
    minimum data exchange during FFTs selected (reduces bandwidth)
 parallel 3D FFT for charge:
    minimum data exchange during FFTs selected (reduces bandwidth)


 total amount of memory used by VASP MPI-rank0  1502421. kBytes
=======================================================================

   base      :      30000. kBytes
   nonl-proj :      48757. kBytes
   fftplans  :     217509. kBytes
   grid      :      89026. kBytes
   one-center:        233. kBytes
   wavefun   :    1116896. kBytes
 
     INWAV:  cpu time    0.0000: real time    0.0001
 Broyden mixing: mesh for mixing (old mesh)
   NGX = 59   NGY = 57   NGZ = 61
  (NGX  =240   NGY  =240   NGZ  =252)
  gives a total of 205143 points

 initial charge density was supplied:
 charge density of overlapping atoms calculated
 number of electron    1344.0000000 magnetization 
 keeping initial charge density in first step


--------------------------------------------------------------------------------------------------------


 Maximum index for augmentation-charges        24795 (set IRDMAX)


--------------------------------------------------------------------------------------------------------


 First call to EWALD:  gamma=   0.126
 Maximum number of real-space cells 3x 3x 3
 Maximum number of reciprocal cells 3x 3x 3

    FEWALD:  cpu time    0.0083: real time    0.0084


--------------------------------------- Iteration      1(   1)  ---------------------------------------


    POTLOK:  cpu time    0.8708: real time    0.8769
    SETDIJ:  cpu time    2.6448: real time    2.6568
     EDDAV:  cpu time  924.3199: real time  926.8559
       DOS:  cpu time    0.0063: real time    0.0064
    --------------------------------------------
      LOOP:  cpu time  927.8418: real time  930.3960

 eigenvalue-minimisations  : 12896
 total energy-change (2. order) : 0.1060512E+05  (-0.7422054E+05)
 number of electron    1344.0000000 magnetization 
 augmentation part     1344.0000000 magnetization 

 Free energy of the ion-electron system (eV)
  ---------------------------------------------------
  alpha Z        PSCENC =      4890.97834259
  Ewald energy   TEWEN  =    -98843.40600547
  -Hartree energ DENC   =    -25788.89873413
  -exchange      EXHF   =         0.00000000
  -V(xc)+E(xc)   XCENC  =      -889.86475610
  PAW double counting   =    106286.73805879  -101298.59693205
  entropy T*S    EENTRO =        -0.04313378
  eigenvalues    EBANDS =     14366.23882199
  atomic energy  EATOM  =    111881.97810035
  Solvation  Ediel_sol  =         0.00000000
  ---------------------------------------------------
  free energy    TOTEN  =     10605.12376219 eV

  energy without entropy =    10605.16689597  energy(sigma->0) =    10605.14532908


--------------------------------------------------------------------------------------------------------




--------------------------------------- Iteration      1(   2)  ---------------------------------------


     EDDAV:  cpu time  962.4021: real time  964.9456
       DOS:  cpu time    0.0075: real time    0.0075
    --------------------------------------------
      LOOP:  cpu time  962.4096: real time  964.9531

 eigenvalue-minimisations  : 13560
 total energy-change (2. order) :-0.1045406E+05  (-0.1002354E+05)
 number of electron    1344.0000000 magnetization 
 augmentation part     1344.0000000 magnetization 

 Free energy of the ion-electron system (eV)
  ---------------------------------------------------
  alpha Z        PSCENC =      4890.97834259
  Ewald energy   TEWEN  =    -98843.40600547
  -Hartree energ DENC   =    -25788.89873413
  -exchange      EXHF   =         0.00000000
  -V(xc)+E(xc)   XCENC  =      -889.86475610
  PAW double counting   =    106286.73805879  -101298.59693205
  entropy T*S    EENTRO =        -0.01229527
  eigenvalues    EBANDS =      3912.15178047
  atomic energy  EATOM  =    111881.97810035
  Solvation  Ediel_sol  =         0.00000000
  ---------------------------------------------------
  free energy    TOTEN  =       151.06755918 eV

  energy without entropy =      151.07985445  energy(sigma->0) =      151.07370682


--------------------------------------------------------------------------------------------------------




--------------------------------------- Iteration      1(   3)  ---------------------------------------


     EDDAV:  cpu time 1010.6283: real time 1013.2590
       DOS:  cpu time    0.0069: real time    0.0069
    --------------------------------------------
      LOOP:  cpu time 1010.6352: real time 1013.2659

 eigenvalue-minimisations  : 14408
 total energy-change (2. order) :-0.6690037E+03  (-0.6500579E+03)
 number of electron    1344.0000000 magnetization 
 augmentation part     1344.0000000 magnetization 

 Free energy of the ion-electron system (eV)
  ---------------------------------------------------
  alpha Z        PSCENC =      4890.97834259
  Ewald energy   TEWEN  =    -98843.40600547
  -Hartree energ DENC   =    -25788.89873413
  -exchange      EXHF   =         0.00000000
  -V(xc)+E(xc)   XCENC  =      -889.86475610
  PAW double counting   =    106286.73805879  -101298.59693205
  entropy T*S    EENTRO =        -0.00611006
  eigenvalues    EBANDS =      3243.14188987
  atomic energy  EATOM  =    111881.97810035
  Solvation  Ediel_sol  =         0.00000000
  ---------------------------------------------------
  free energy    TOTEN  =      -517.93614622 eV

  energy without entropy =     -517.93003615  energy(sigma->0) =     -517.93309118


--------------------------------------------------------------------------------------------------------




--------------------------------------- Iteration      1(   4)  ---------------------------------------


     EDDAV:  cpu time  984.6084: real time  987.1193
       DOS:  cpu time    0.0076: real time    0.0079
    --------------------------------------------
      LOOP:  cpu time  984.6160: real time  987.1272

 eigenvalue-minimisations  : 13976
 total energy-change (2. order) :-0.1747995E+02  (-0.1726342E+02)
 number of electron    1344.0000000 magnetization 
 augmentation part     1344.0000000 magnetization 

 Free energy of the ion-electron system (eV)
  ---------------------------------------------------
  alpha Z        PSCENC =      4890.97834259
  Ewald energy   TEWEN  =    -98843.40600547
  -Hartree energ DENC   =    -25788.89873413
  -exchange      EXHF   =         0.00000000
  -V(xc)+E(xc)   XCENC  =      -889.86475610
  PAW double counting   =    106286.73805879  -101298.59693205
  entropy T*S    EENTRO =        -0.00545055
  eigenvalues    EBANDS =      3225.66127875
  atomic energy  EATOM  =    111881.97810035
  Solvation  Ediel_sol  =         0.00000000
  ---------------------------------------------------
  free energy    TOTEN  =      -535.41609783 eV

  energy without entropy =     -535.41064727  energy(sigma->0) =     -535.41337255


--------------------------------------------------------------------------------------------------------




--------------------------------------- Iteration      1(   5)  ---------------------------------------


     EDDAV:  cpu time  989.5969: real time  992.0769
       DOS:  cpu time    0.0083: real time    0.0085
    CHARGE:  cpu time   14.4857: real time   14.5294
    MIXING:  cpu time    0.1243: real time    0.1246
    --------------------------------------------
      LOOP:  cpu time 1004.2152: real time 1006.7394

 eigenvalue-minimisations  : 14200
 total energy-change (2. order) :-0.2549468E+00  (-0.2540189E+00)
 number of electron    1344.0000022 magnetization 
 augmentation part      434.5275831 magnetization 

 Broyden mixing:
  rms(total) = 0.57805E+01    rms(broyden)= 0.57805E+01
  rms(prec ) = 0.61445E+01
  weight for this iteration     100.00

 Free energy of the ion-electron system (eV)
  ---------------------------------------------------
  alpha Z        PSCENC =      4890.97834259
  Ewald energy   TEWEN  =    -98843.40600547
  -Hartree energ DENC   =    -25788.89873413
  -exchange      EXHF   =         0.00000000
  -V(xc)+E(xc)   XCENC  =      -889.86475610
  PAW double counting   =    106286.73805879  -101298.59693205
  entropy T*S    EENTRO =        -0.00545865
  eigenvalues    EBANDS =      3225.40634001
  atomic energy  EATOM  =    111881.97810035
  Solvation  Ediel_sol  =         0.00000000
  ---------------------------------------------------
  free energy    TOTEN  =      -535.67104466 eV

  energy without entropy =     -535.66558601  energy(sigma->0) =     -535.66831534


--------------------------------------------------------------------------------------------------------




--------------------------------------- Iteration      1(   6)  ---------------------------------------


    POTLOK:  cpu time    0.8650: real time    0.8687
    SETDIJ:  cpu time    2.5811: real time    2.5874
     EDDAV:  cpu time  957.2640: real time  959.6839
       DOS:  cpu time    0.0079: real time    0.0079
    CHARGE:  cpu time   14.2058: real time   14.2419
    MIXING:  cpu time    0.0331: real time    0.0332
    --------------------------------------------
      LOOP:  cpu time  974.9569: real time  977.4230

 eigenvalue-minimisations  : 13616
 total energy-change (2. order) : 0.3068781E+02  (-0.1278249E+02)
 number of electron    1344.0000023 magnetization 
 augmentation part      453.9157490 magnetization 

 Broyden mixing:
  rms(total) = 0.43956E+01    rms(broyden)= 0.43956E+01
  rms(prec ) = 0.44033E+01
  weight for this iteration     100.00

 eigenvalues of (default mixing * dielectric matrix)
  average eigenvalue GAMMA=   1.1411
  1.1411

 Free energy of the ion-electron system (eV)
  ---------------------------------------------------
  alpha Z        PSCENC =      4890.97834259
  Ewald energy   TEWEN  =    -98843.40600547
  -Hartree energ DENC   =    -24779.46014537
  -exchange      EXHF   =         0.00000000
  -V(xc)+E(xc)   XCENC  =      -919.37613713
  PAW double counting   =    111560.57199087  -106627.65892412
  entropy T*S    EENTRO =        -0.01547905
  eigenvalues    EBANDS =      2331.40501795
  atomic energy  EATOM  =    111881.97810035
  Solvation  Ediel_sol  =         0.00000000
  ---------------------------------------------------
  free energy    TOTEN  =      -504.98323938 eV

  energy without entropy =     -504.96776033  energy(sigma->0) =     -504.97549986


--------------------------------------------------------------------------------------------------------




--------------------------------------- Iteration      1(   7)  ---------------------------------------


    POTLOK:  cpu time    1.0455: real time    1.0481
    SETDIJ:  cpu time    2.4381: real time    2.4443
     EDDAV:  cpu time  958.4249: real time  960.8155
       DOS:  cpu time    0.0078: real time    0.0078
    CHARGE:  cpu time   13.7810: real time   13.8133
    MIXING:  cpu time    0.3275: real time    0.3318
    --------------------------------------------
      LOOP:  cpu time  976.0248: real time  978.4610

 eigenvalue-minimisations  : 13496
 total energy-change (2. order) :-0.6742971E+00  (-0.1702918E+01)
 number of electron    1344.0000023 magnetization 
 augmentation part      454.6472410 magnetization 

 Broyden mixing:
  rms(total) = 0.22963E+01    rms(broyden)= 0.22963E+01
  rms(prec ) = 0.23048E+01
  weight for this iteration     100.00

 eigenvalues of (default mixing * dielectric matrix)
  average eigenvalue GAMMA=   1.6033
  0.9833  2.2233

 Free energy of the ion-electron system (eV)
  ---------------------------------------------------
  alpha Z        PSCENC =      4890.97834259
  Ewald energy   TEWEN  =    -98843.40600547
  -Hartree energ DENC   =    -24746.27841381
  -exchange      EXHF   =         0.00000000
  -V(xc)+E(xc)   XCENC  =      -919.75599890
  PAW double counting   =    115734.93874795  -110859.60860152
  entropy T*S    EENTRO =        -0.01575212
  eigenvalues    EBANDS =      2355.51204450
  atomic energy  EATOM  =    111881.97810035
  Solvation  Ediel_sol  =         0.00000000
  ---------------------------------------------------
  free energy    TOTEN  =      -505.65753644 eV

  energy without entropy =     -505.64178432  energy(sigma->0) =     -505.64966038


--------------------------------------------------------------------------------------------------------




--------------------------------------- Iteration      1(   8)  ---------------------------------------


    POTLOK:  cpu time    0.8859: real time    0.8884
    SETDIJ:  cpu time    2.6078: real time    2.6141
     EDDAV:  cpu time  971.3987: real time  973.8666
       DOS:  cpu time    0.0079: real time    0.0082
    CHARGE:  cpu time   14.2487: real time   14.2859
    MIXING:  cpu time    0.0351: real time    0.0375
    --------------------------------------------
      LOOP:  cpu time  989.1842: real time  991.7006

 eigenvalue-minimisations  : 13832
 total energy-change (2. order) : 0.4756195E+00  (-0.1221886E+00)
 number of electron    1344.0000023 magnetization 
 augmentation part      453.3478351 magnetization 

 Broyden mixing:
  rms(total) = 0.20646E+00    rms(broyden)= 0.20646E+00
  rms(prec ) = 0.22605E+00
  weight for this iteration     100.00

 eigenvalues of (default mixing * dielectric matrix)
  average eigenvalue GAMMA=   1.4618
  2.3925  0.9965  0.9965

 Free energy of the ion-electron system (eV)
  ---------------------------------------------------
  alpha Z        PSCENC =      4890.97834259
  Ewald energy   TEWEN  =    -98843.40600547
  -Hartree energ DENC   =    -24698.33015254
  -exchange      EXHF   =         0.00000000
  -V(xc)+E(xc)   XCENC  =      -921.39832459
  PAW double counting   =    121617.42738521  -116803.69321059
  entropy T*S    EENTRO =        -0.01460410
  eigenvalues    EBANDS =      2371.27655225
  atomic energy  EATOM  =    111881.97810035
  Solvation  Ediel_sol  =         0.00000000
  ---------------------------------------------------
  free energy    TOTEN  =      -505.18191690 eV

  energy without entropy =     -505.16731280  energy(sigma->0) =     -505.17461485


--------------------------------------------------------------------------------------------------------




--------------------------------------- Iteration      1(   9)  ---------------------------------------


    POTLOK:  cpu time    1.0450: real time    1.0494
    SETDIJ:  cpu time    2.4027: real time    2.4089
     EDDAV:  cpu time  962.2526: real time  964.5907
       DOS:  cpu time    0.0076: real time    0.0078
    CHARGE:  cpu time   14.4272: real time   14.4655
    MIXING:  cpu time    0.0373: real time    0.0375
    --------------------------------------------
      LOOP:  cpu time  980.1725: real time  982.5597

 eigenvalue-minimisations  : 13624
 total energy-change (2. order) : 0.5566969E-01  (-0.3134871E-01)
 number of electron    1344.0000023 magnetization 
 augmentation part      454.0089666 magnetization 

 Broyden mixing:
  rms(total) = 0.68505E-01    rms(broyden)= 0.68505E-01
  rms(prec ) = 0.70759E-01
  weight for this iteration     100.00

 eigenvalues of (default mixing * dielectric matrix)
  average eigenvalue GAMMA=   1.5147
  2.5089  0.9958  0.9958  1.5585

 Free energy of the ion-electron system (eV)
  ---------------------------------------------------
  alpha Z        PSCENC =      4890.97834259
  Ewald energy   TEWEN  =    -98843.40600547
  -Hartree energ DENC   =    -24655.52782969
  -exchange      EXHF   =         0.00000000
  -V(xc)+E(xc)   XCENC  =      -922.50054907
  PAW double counting   =    122237.96760712  -117429.60483895
  entropy T*S    EENTRO =        -0.01521649
  eigenvalues    EBANDS =      2335.00414240
  atomic energy  EATOM  =    111881.97810035
  Solvation  Ediel_sol  =         0.00000000
  ---------------------------------------------------
  free energy    TOTEN  =      -505.12624721 eV

  energy without entropy =     -505.11103072  energy(sigma->0) =     -505.11863896


--------------------------------------------------------------------------------------------------------




--------------------------------------- Iteration      1(  10)  ---------------------------------------


    POTLOK:  cpu time    1.0381: real time    1.0419
    SETDIJ:  cpu time    2.4472: real time    2.4534
     EDDAV:  cpu time  965.4338: real time  967.9424
       DOS:  cpu time    0.0078: real time    0.0078
    CHARGE:  cpu time   14.3704: real time   14.4406
    MIXING:  cpu time    0.0428: real time    0.0429
    --------------------------------------------
      LOOP:  cpu time  983.3401: real time  985.9290

 eigenvalue-minimisations  : 13696
 total energy-change (2. order) :-0.2123323E-02  (-0.4772012E-02)
 number of electron    1344.0000023 magnetization 
 augmentation part      454.1194634 magnetization 

 Broyden mixing:
  rms(total) = 0.29840E-01    rms(broyden)= 0.29840E-01
  rms(prec ) = 0.30763E-01
  weight for this iteration     100.00

 eigenvalues of (default mixing * dielectric matrix)
  average eigenvalue GAMMA=   1.6233
  2.5309  2.5309  1.0040  1.0040  1.0466

 Free energy of the ion-electron system (eV)
  ---------------------------------------------------
  alpha Z        PSCENC =      4890.97834259
  Ewald energy   TEWEN  =    -98843.40600547
  -Hartree energ DENC   =    -24655.63054715
  -exchange      EXHF   =         0.00000000
  -V(xc)+E(xc)   XCENC  =      -922.45855385
  PAW double counting   =    122273.09731020  -117465.77301709
  entropy T*S    EENTRO =        -0.01527428
  eigenvalues    EBANDS =      2336.10127417
  atomic energy  EATOM  =    111881.97810035
  Solvation  Ediel_sol  =         0.00000000
  ---------------------------------------------------
  free energy    TOTEN  =      -505.12837053 eV

  energy without entropy =     -505.11309625  energy(sigma->0) =     -505.12073339


--------------------------------------------------------------------------------------------------------




--------------------------------------- Iteration      1(  11)  ---------------------------------------


    POTLOK:  cpu time    1.0595: real time    1.0624
    SETDIJ:  cpu time    2.4168: real time    2.4230
     EDDAV:  cpu time  981.8280: real time  984.3503
       DOS:  cpu time    0.0075: real time    0.0075
    CHARGE:  cpu time   14.6490: real time   14.6855
    MIXING:  cpu time    0.1292: real time    0.1295
    --------------------------------------------
      LOOP:  cpu time 1000.0901: real time 1002.6583

 eigenvalue-minimisations  : 13848
 total energy-change (2. order) : 0.1234774E-03  (-0.3013591E-03)
 number of electron    1344.0000023 magnetization 
 augmentation part      454.0469022 magnetization 

 Broyden mixing:
  rms(total) = 0.78789E-02    rms(broyden)= 0.78787E-02
  rms(prec ) = 0.84776E-02
  weight for this iteration     100.00

 eigenvalues of (default mixing * dielectric matrix)
  average eigenvalue GAMMA=   1.5333
  2.4913  2.4301  1.2439  0.9876  1.0233  1.0233

 Free energy of the ion-electron system (eV)
  ---------------------------------------------------
  alpha Z        PSCENC =      4890.97834259
  Ewald energy   TEWEN  =    -98843.40600547
  -Hartree energ DENC   =    -24659.54600319
  -exchange      EXHF   =         0.00000000
  -V(xc)+E(xc)   XCENC  =      -922.39200993
  PAW double counting   =    122218.74353135  -117410.85196290
  entropy T*S    EENTRO =        -0.01520604
  eigenvalues    EBANDS =      2339.38296619
  atomic energy  EATOM  =    111881.97810035
  Solvation  Ediel_sol  =         0.00000000
  ---------------------------------------------------
  free energy    TOTEN  =      -505.12824706 eV

  energy without entropy =     -505.11304102  energy(sigma->0) =     -505.12064404


--------------------------------------------------------------------------------------------------------




--------------------------------------- Iteration      1(  12)  ---------------------------------------


    POTLOK:  cpu time    1.1224: real time    1.1252
    SETDIJ:  cpu time    2.5097: real time    2.5152
     EDDAV:  cpu time  976.0338: real time  978.6282
       DOS:  cpu time    0.0079: real time    0.0083
    CHARGE:  cpu time   15.1572: real time   15.1985
    MIXING:  cpu time    0.0420: real time    0.0421
    --------------------------------------------
      LOOP:  cpu time  994.8730: real time  997.5174

 eigenvalue-minimisations  : 13760
 total energy-change (2. order) : 0.4232000E-04  (-0.6246879E-04)
 number of electron    1344.0000023 magnetization 
 augmentation part      454.0711220 magnetization 

 Broyden mixing:
  rms(total) = 0.20341E-02    rms(broyden)= 0.20335E-02
  rms(prec ) = 0.21690E-02
  weight for this iteration     100.00

 eigenvalues of (default mixing * dielectric matrix)
  average eigenvalue GAMMA=   1.5116
  2.7311  2.3945  1.3750  1.0082  1.0082  1.1658  0.8980

 Free energy of the ion-electron system (eV)
  ---------------------------------------------------
  alpha Z        PSCENC =      4890.97834259
  Ewald energy   TEWEN  =    -98843.40600547
  -Hartree energ DENC   =    -24657.43007265
  -exchange      EXHF   =         0.00000000
  -V(xc)+E(xc)   XCENC  =      -922.45811781
  PAW double counting   =    122248.83220884  -117441.11316630
  entropy T*S    EENTRO =        -0.01522634
  eigenvalues    EBANDS =      2337.50573206
  atomic energy  EATOM  =    111881.97810035
  Solvation  Ediel_sol  =         0.00000000
  ---------------------------------------------------
  free energy    TOTEN  =      -505.12820474 eV

  energy without entropy =     -505.11297839  energy(sigma->0) =     -505.12059156


--------------------------------------------------------------------------------------------------------




--------------------------------------- Iteration      1(  13)  ---------------------------------------


    POTLOK:  cpu time    1.1336: real time    1.1397
    SETDIJ:  cpu time    2.5408: real time    2.5476
     EDDAV:  cpu time 1029.1680: real time 1031.6715
       DOS:  cpu time    0.0078: real time    0.0081
    CHARGE:  cpu time   17.4985: real time   17.5389
    MIXING:  cpu time    0.0440: real time    0.0441
    --------------------------------------------
      LOOP:  cpu time 1050.3927: real time 1052.9499

 eigenvalue-minimisations  : 14624
 total energy-change (2. order) :-0.1693843E-07  (-0.1456043E-05)
 number of electron    1344.0000023 magnetization 
 augmentation part      454.0696368 magnetization 

 Broyden mixing:
  rms(total) = 0.82429E-03    rms(broyden)= 0.82264E-03
  rms(prec ) = 0.88273E-03
  weight for this iteration     100.00

 eigenvalues of (default mixing * dielectric matrix)
  average eigenvalue GAMMA=   1.5046
  2.7854  2.3934  1.6573  1.3264  0.9869  0.9869  0.9501  0.9501

 Free energy of the ion-electron system (eV)
  ---------------------------------------------------
  alpha Z        PSCENC =      4890.97834259
  Ewald energy   TEWEN  =    -98843.40600547
  -Hartree energ DENC   =    -24657.51240004
  -exchange      EXHF   =         0.00000000
  -V(xc)+E(xc)   XCENC  =      -922.45887394
  PAW double counting   =    122251.87302517  -117444.15834902
  entropy T*S    EENTRO =        -0.01522341
  eigenvalues    EBANDS =      2337.59317901
  atomic energy  EATOM  =    111881.97810035
  Solvation  Ediel_sol  =         0.00000000
  ---------------------------------------------------
  free energy    TOTEN  =      -505.12820475 eV

  energy without entropy =     -505.11298134  energy(sigma->0) =     -505.12059305


--------------------------------------------------------------------------------------------------------




--------------------------------------- Iteration      1(  14)  ---------------------------------------


    POTLOK:  cpu time    0.9101: real time    0.9124
    SETDIJ:  cpu time    2.4190: real time    2.4248
     EDDAV:  cpu time  977.3103: real time  979.6010
       DOS:  cpu time    0.0075: real time    0.0075
    CHARGE:  cpu time   15.4062: real time   15.4417
    MIXING:  cpu time    0.0396: real time    0.0396
    --------------------------------------------
      LOOP:  cpu time  996.0926: real time  998.4270

 eigenvalue-minimisations  : 13696
 total energy-change (2. order) : 0.1134453E-05  (-0.3437429E-06)
 number of electron    1344.0000023 magnetization 
 augmentation part      454.0671836 magnetization 

 Broyden mixing:
  rms(total) = 0.32619E-03    rms(broyden)= 0.32199E-03
  rms(prec ) = 0.33145E-03
  weight for this iteration     100.00

 eigenvalues of (default mixing * dielectric matrix)
  average eigenvalue GAMMA=   1.5349
  2.7681  2.4257  2.3710  1.1499  1.1499  0.9874  0.9874  0.9874  0.9874

 Free energy of the ion-electron system (eV)
  ---------------------------------------------------
  alpha Z        PSCENC =      4890.97834259
  Ewald energy   TEWEN  =    -98843.40600547
  -Hartree energ DENC   =    -24657.65696520
  -exchange      EXHF   =         0.00000000
  -V(xc)+E(xc)   XCENC  =      -922.45404524
  PAW double counting   =    122252.09521632  -117444.36154175
  entropy T*S    EENTRO =        -0.01522233
  eigenvalues    EBANDS =      2337.71391710
  atomic energy  EATOM  =    111881.97810035
  Solvation  Ediel_sol  =         0.00000000
  ---------------------------------------------------
  free energy    TOTEN  =      -505.12820362 eV

  energy without entropy =     -505.11298129  energy(sigma->0) =     -505.12059246


--------------------------------------------------------------------------------------------------------




--------------------------------------- Iteration      1(  15)  ---------------------------------------


    POTLOK:  cpu time    1.0488: real time    1.0514
    SETDIJ:  cpu time    2.3877: real time    2.3933
     EDDAV:  cpu time  995.9242: real time  998.2822
       DOS:  cpu time    0.0076: real time    0.0076
    CHARGE:  cpu time   14.9727: real time   15.0077
    MIXING:  cpu time    0.0408: real time    0.0409
    --------------------------------------------
      LOOP:  cpu time 1014.3818: real time 1016.7830

 eigenvalue-minimisations  : 14160
 total energy-change (2. order) : 0.1509223E-05  (-0.2032124E-07)
 number of electron    1344.0000023 magnetization 
 augmentation part      454.0668777 magnetization 

 Broyden mixing:
  rms(total) = 0.12435E-03    rms(broyden)= 0.11286E-03
  rms(prec ) = 0.12031E-03
  weight for this iteration     100.00

 eigenvalues of (default mixing * dielectric matrix)
  average eigenvalue GAMMA=   1.5170
  2.7281  2.6185  2.3276  1.3315  1.3315  0.9872  0.9872  0.9047  0.9767  0.9767

 Free energy of the ion-electron system (eV)
  ---------------------------------------------------
  alpha Z        PSCENC =      4890.97834259
  Ewald energy   TEWEN  =    -98843.40600547
  -Hartree energ DENC   =    -24657.69827420
  -exchange      EXHF   =         0.00000000
  -V(xc)+E(xc)   XCENC  =      -922.45275000
  PAW double counting   =    122252.07792319  -117444.33119912
  entropy T*S    EENTRO =        -0.01522210
  eigenvalues    EBANDS =      2337.74088265
  atomic energy  EATOM  =    111881.97810035
  Solvation  Ediel_sol  =         0.00000000
  ---------------------------------------------------
  free energy    TOTEN  =      -505.12820211 eV

  energy without entropy =     -505.11298001  energy(sigma->0) =     -505.12059106


--------------------------------------------------------------------------------------------------------




--------------------------------------- Iteration      1(  16)  ---------------------------------------


    POTLOK:  cpu time    1.0343: real time    1.0366
    SETDIJ:  cpu time    2.3986: real time    2.4042
     EDDAV:  cpu time  900.6050: real time  902.7503
       DOS:  cpu time    0.0079: real time    0.0082
    CHARGE:  cpu time   14.2785: real time   14.3173
    MIXING:  cpu time    0.0495: real time    0.0496
    --------------------------------------------
      LOOP:  cpu time  918.3738: real time  920.5664

 eigenvalue-minimisations  : 12448
 total energy-change (2. order) :-0.1219450E-07  (-0.5483986E-08)
 number of electron    1344.0000023 magnetization 
 augmentation part      454.0665639 magnetization 

 Broyden mixing:
[...]
   0.709E-02 0.434E-04 -.315E+02   -.745E-02 -.949E-06 0.328E+02   0.264E-03 -.625E-04 -.136E+01   -.777E-07 -.307E-06 -.213E-06
   -.684E-02 0.321E-04 -.315E+02   0.664E-02 0.826E-06 0.328E+02   0.176E-03 0.357E-04 -.136E+01   0.136E-06 0.247E-06 -.399E-06
   0.286E-01 -.307E-03 -.315E+02   -.287E-01 -.287E-05 0.329E+02   0.390E-03 0.407E-03 -.136E+01   0.499E-07 0.470E-06 0.743E-07
   -.167E-01 0.430E-03 -.315E+02   0.157E-01 0.159E-05 0.328E+02   0.203E-02 -.944E-04 -.136E+01   -.268E-07 0.509E-07 -.199E-06
   0.715E-02 0.499E-05 -.315E+02   -.743E-02 -.946E-06 0.328E+02   0.178E-03 0.120E-03 -.136E+01   -.210E-06 -.497E-06 -.109E-06
   -.694E-02 -.184E-04 -.315E+02   0.662E-02 0.824E-06 0.328E+02   0.286E-03 0.516E-04 -.136E+01   0.261E-06 -.165E-06 -.266E-06
   -.126E+00 -.186E-02 -.315E+02   0.122E+00 0.121E-04 0.329E+02   0.898E-02 -.124E-03 -.136E+01   -.139E-06 0.379E-06 -.175E-06
   0.795E-02 -.138E-03 -.314E+02   -.992E-02 -.989E-06 0.328E+02   0.298E-02 -.687E-03 -.136E+01   0.322E-06 0.123E-07 -.143E-06
   -.468E-02 -.112E-03 -.315E+02   0.490E-02 0.721E-06 0.328E+02   -.122E-03 0.367E-04 -.136E+01   0.550E-06 -.424E-06 -.263E-07
   0.267E-02 -.910E-04 -.314E+02   -.262E-02 -.356E-06 0.328E+02   -.105E-03 -.229E-04 -.136E+01   -.619E-06 -.552E-07 0.571E-08
   -.169E-02 -.940E-04 -.315E+02   0.117E-02 0.116E-06 0.328E+02   0.769E-03 -.732E-04 -.136E+01   -.151E-06 0.429E-06 -.305E-06
   -.160E-02 -.454E-04 -.315E+02   0.116E-02 0.115E-06 0.328E+02   0.647E-03 -.195E-03 -.136E+01   0.175E-06 0.213E-07 -.301E-06
   0.118E-03 -.487E-04 -.315E+02   0.168E-03 0.242E-07 0.328E+02   -.213E-03 0.111E-04 -.136E+01   0.286E-06 -.285E-06 -.425E-06
   0.198E-04 0.300E-04 -.315E+02   0.174E-03 0.248E-07 0.328E+02   -.818E-04 -.905E-04 -.136E+01   -.362E-06 -.630E-07 -.339E-06
   0.769E-02 0.140E-03 -.314E+02   -.104E-01 -.104E-05 0.328E+02   0.348E-02 -.735E-03 -.136E+01   -.347E-06 0.201E-06 0.208E-06
   -.125E+00 -.120E-02 -.315E+02   0.121E+00 0.120E-04 0.329E+02   0.976E-02 -.657E-03 -.136E+01   0.307E-06 -.241E-06 0.240E-06
   0.258E-02 0.337E-03 -.314E+02   -.266E-02 -.361E-06 0.328E+02   0.499E-04 -.614E-03 -.136E+01   0.221E-06 -.176E-06 0.219E-06
   -.499E-02 0.434E-03 -.315E+02   0.493E-02 0.725E-06 0.328E+02   0.137E-03 -.593E-03 -.136E+01   -.284E-06 0.351E-06 0.117E-06
   0.615E-01 -.779E-01 0.315E+02   -.614E-01 0.767E-01 -.328E+02   -.197E-02 0.461E-02 0.136E+01   0.111E-06 -.309E-06 0.184E-06
   -.221E-01 -.276E-02 0.315E+02   0.221E-01 0.276E-02 -.328E+02   0.719E-04 0.855E-04 0.136E+01   -.220E-06 0.492E-06 0.287E-06
   0.619E-01 0.801E-01 0.315E+02   -.614E-01 -.767E-01 -.328E+02   -.141E-02 -.595E-02 0.136E+01   -.100E-06 0.490E-06 -.104E-06
   -.223E-01 0.279E-02 0.315E+02   0.221E-01 -.276E-02 -.328E+02   0.264E-03 0.820E-04 0.136E+01   0.217E-06 -.431E-06 0.112E-06
   0.906E-02 -.517E-02 0.314E+02   -.916E-02 0.535E-02 -.328E+02   0.131E-03 -.136E-03 0.136E+01   0.333E-07 -.192E-06 -.680E-07
   -.800E-02 -.785E-03 0.315E+02   0.776E-02 0.976E-03 -.328E+02   0.251E-03 -.544E-04 0.136E+01   -.682E-07 0.526E-06 -.247E-06
   0.888E-02 0.539E-02 0.314E+02   -.916E-02 -.535E-02 -.328E+02   0.298E-03 0.784E-04 0.136E+01   -.288E-06 0.131E-06 -.121E-06
   -.802E-02 0.925E-03 0.315E+02   0.776E-02 -.974E-03 -.328E+02   0.374E-03 0.112E-03 0.136E+01   0.235E-06 -.456E-06 -.555E-06
   0.311E-01 0.521E-01 0.314E+02   -.312E-01 -.507E-01 -.328E+02   -.125E-03 -.264E-02 0.136E+01   0.174E-06 -.205E-06 0.654E-07
   -.162E-01 0.365E-02 0.315E+02   0.163E-01 -.363E-02 -.328E+02   0.247E-03 -.456E-04 0.136E+01   -.170E-06 0.381E-06 0.243E-06
   0.307E-01 -.512E-01 0.314E+02   -.313E-01 0.507E-01 -.328E+02   0.130E-02 0.201E-02 0.136E+01   -.233E-06 0.211E-06 0.407E-06
   -.165E-01 -.381E-02 0.315E+02   0.163E-01 0.363E-02 -.328E+02   0.565E-03 0.278E-03 0.136E+01   0.332E-06 -.294E-06 0.519E-06
   -.107E-01 -.290E-01 0.315E+02   0.113E-01 0.301E-01 -.328E+02   0.298E-05 -.138E-02 0.136E+01   -.157E-06 -.369E-07 0.370E-06
   -.312E-01 0.503E-01 0.315E+02   0.307E-01 -.489E-01 -.328E+02   0.773E-03 -.200E-02 0.136E+01   0.136E-06 0.411E-07 0.369E-06
   -.115E-01 0.311E-01 0.315E+02   0.113E-01 -.301E-01 -.328E+02   0.133E-02 -.166E-02 0.136E+01   0.159E-06 0.110E-06 0.526E-06
   -.300E-01 -.476E-01 0.315E+02   0.307E-01 0.489E-01 -.328E+02   0.109E-03 -.887E-03 0.136E+01   -.307E-06 -.149E-06 0.282E-06
   -.167E-01 -.228E-01 0.314E+02   0.166E-01 0.228E-01 -.328E+02   0.254E-03 0.943E-04 0.136E+01   0.699E-08 0.363E-07 -.464E-06
   0.903E-02 -.218E-02 0.315E+02   -.886E-02 0.208E-02 -.328E+02   -.199E-03 -.137E-03 0.136E+01   0.104E-06 0.375E-06 -.137E-06
   -.164E-01 0.221E-01 0.314E+02   0.166E-01 -.228E-01 -.328E+02   -.175E-03 0.162E-03 0.136E+01   0.449E-06 -.136E-06 -.349E-06
   0.924E-02 0.227E-02 0.315E+02   -.886E-02 -.208E-02 -.328E+02   -.505E-03 -.260E-03 0.136E+01   -.452E-06 -.301E-06 -.176E-06
   0.445E-02 0.153E-02 0.314E+02   -.477E-02 -.132E-02 -.328E+02   0.340E-03 -.186E-03 0.136E+01   -.244E-06 -.368E-07 0.148E-06
   -.710E-02 0.104E-01 0.314E+02   0.712E-02 -.102E-01 -.328E+02   0.986E-04 -.261E-03 0.136E+01   0.256E-06 0.269E-06 -.482E-07
   0.465E-02 -.137E-02 0.314E+02   -.477E-02 0.132E-02 -.328E+02   0.225E-03 0.755E-05 0.136E+01   0.584E-07 0.738E-08 0.888E-07
   -.724E-02 -.102E-01 0.314E+02   0.712E-02 0.102E-01 -.328E+02   0.333E-03 -.181E-03 0.136E+01   -.107E-06 -.230E-06 0.381E-07
 -----------------------------------------------------------------------------------------------
   -.104E+00 0.958E-03 -.961E-01   -.223E-12 -.583E-12 0.824E-12   0.104E+00 -.959E-03 0.961E-01   0.586E-06 -.204E-06 0.107E-05
 
 
 POSITION                                       TOTAL-FORCE (eV/Angst)
 -----------------------------------------------------------------------------------
      6.02252      2.36397      4.83761        -0.000032      0.000067     -0.000065
     13.02771      2.36467      4.83761         0.000089      0.000175      0.000107
      6.02177      9.24743      4.83761        -0.000106      0.000095     -0.000056
     13.02696      9.24813      4.83761         0.000135      0.000098     -0.000360
      6.02252      2.36397      9.68767        -0.000036      0.000155     -0.000084
     13.02771      2.36467      9.68767         0.000099      0.000083     -0.000100
      6.02177      9.24743      9.68767        -0.000072      0.000052     -0.000051
     13.02696      9.24813      9.68767        -0.000192     -0.000103     -0.000341
      6.02252      2.36397     14.53774        -0.000138      0.000033      0.000085
     13.02771      2.36467     14.53774         0.004098     -0.010252      0.002337
      6.02177      9.24743     14.53774        -0.000291      0.000082      0.000021
     13.02696      9.24813     14.53774         0.000142      0.000295      0.000246
      0.98193      4.52018      4.83761         0.000045     -0.000060      0.000027
      7.98713      4.52087      4.83761        -0.000006     -0.000054     -0.000020
      0.98118     11.40363      4.83761         0.000149     -0.000293      0.000174
      7.98638     11.40433      4.83761        -0.000035     -0.000001     -0.000019
      0.98193      4.52018      9.68767         0.000049      0.000004     -0.000283
      7.98713      4.52087      9.68767        -0.000063     -0.000071     -0.000052
      0.98118     11.40363      9.68767        -0.000063     -0.000062     -0.000145
      7.98638     11.40433      9.68767        -0.000121     -0.000080     -0.000058
      0.98193      4.52018     14.53774        -0.000025     -0.000070      0.000156
      7.98713      4.52087     14.53774        -0.000131     -0.000064     -0.000017
      0.98118     11.40363     14.53774        -0.002460      0.002199     -0.001172
      7.98638     11.40433     14.53774        -0.000087     -0.000139     -0.000062
      4.48438      5.80559      0.82079         0.000002      0.000004      0.000055
     11.48958      5.80628      0.82079         0.000095      0.000059      0.000130
      4.48363     12.68904      0.82079         0.000133     -0.000009      0.000217
     11.48883     12.68974      0.82079         0.008227      0.005686     -0.000867
      4.48438      5.80559      5.67085         0.000001     -0.000024      0.000022
     11.48958      5.80628      5.67085         0.000051      0.000048      0.000053
      4.48363     12.68904      5.67085        -0.000334      0.000275     -0.000530
     11.48883     12.68974      5.67085         0.000290     -0.000047     -0.000238
      4.48438      5.80559     10.52092        -0.000012      0.000024      0.000056
     11.48958      5.80628     10.52092        -0.000050      0.000014      0.000054
      4.48363     12.68904     10.52092        -0.000292      0.000146      0.000369
     11.48883     12.68974     10.52092        -0.000300      0.000028     -0.000712
      2.52007      1.07856      0.82079         0.007547      0.005992     -0.002203
      9.52526      1.07926      0.82079         0.000134      0.000124      0.000086
      2.51931      7.96202      0.82079        -0.000067      0.000049      0.000033
      9.52451      7.96271      0.82079         0.000000     -0.000125      0.000108
      2.52007      1.07856      5.67085        -0.000301     -0.000062     -0.000749
      9.52526      1.07926      5.67085        -0.000317      0.000101      0.000260
      2.51931      7.96202      5.67085        -0.000093      0.000038     -0.000012
      9.52451      7.96271      5.67085        -0.000042      0.000006      0.000049
      2.52007      1.07856     10.52092         0.000217     -0.000061     -0.000254
      9.52526      1.07926     10.52092        -0.000312      0.000220     -0.000604
      2.51931      7.96202     10.52092         0.000029     -0.000014      0.000029
      9.52451      7.96271     10.52092        -0.000070     -0.000050      0.000031
      2.51967      4.52025      2.41255        -0.000150     -0.000120     -0.000101
      9.52486      4.52095      2.41255        -0.000041      0.000054      0.000070
      2.51891     11.40371      2.41255         0.000578     -0.000557      0.000291
      9.52411     11.40440      2.41255        -0.000187     -0.000200      0.000262
      2.51967      4.52025      7.26261        -0.000021      0.000041     -0.000124
      9.52486      4.52095      7.26261        -0.000064      0.000033     -0.000068
      2.51891     11.40371      7.26261         0.000040     -0.000037     -0.000081
      9.52411     11.40440      7.26261        -0.000043     -0.000005     -0.000092
      2.51967      4.52025     12.11268         0.000076      0.000031      0.000064
      9.52486      4.52095     12.11268        -0.000029      0.000113     -0.000059
      2.51891     11.40371     12.11268        -0.000172      0.000168      0.000228
      9.52411     11.40440     12.11268        -0.000142     -0.000367     -0.000017
      4.48478      2.36390      2.41255        -0.000094     -0.000439     -0.000073
     11.48998      2.36459      2.41255         0.000171     -0.000029     -0.000379
      4.48403      9.24735      2.41255        -0.000098      0.000053     -0.000075
     11.48923      9.24805      2.41255         0.000204     -0.000079      0.000145
      4.48478      2.36390      7.26261        -0.000008      0.000008     -0.000035
     11.48998      2.36459      7.26261        -0.000021     -0.000040     -0.000029
      4.48403      9.24735      7.26261        -0.000074      0.000055     -0.000029
     11.48923      9.24805      7.26261        -0.000047      0.000006     -0.000116
      4.48478      2.36390     12.11268        -0.000086     -0.000068     -0.000095
     11.48998      2.36459     12.11268         0.000281     -0.000205      0.000408
      4.48403      9.24735     12.11268        -0.000122      0.000146      0.000078
     11.48923      9.24805     12.11268        -0.000218      0.000080      0.000064
      6.02211      5.80576      3.24586        -0.000006      0.000013      0.000040
     13.02731      5.80646      3.24586         0.000162     -0.000594     -0.000195
      6.02136     12.68921      3.24586        -0.000847      0.000224      0.000114
     13.02655     12.68991      3.24586        -0.001564     -0.000277      0.001890
      6.02211      5.80576      8.09592         0.000014     -0.000007     -0.000004
     13.02731      5.80646      8.09592         0.000026      0.000040     -0.000106
      6.02136     12.68921      8.09592        -0.000146      0.000013     -0.000192
     13.02655     12.68991      8.09592        -0.000056      0.000074     -0.000295
      6.02211      5.80576     12.94599        -0.000008      0.000092      0.000009
     13.02731      5.80646     12.94599         0.000020      0.000083      0.000128
      6.02136     12.68921     12.94599        -0.000267      0.000020     -0.000047
     13.02655     12.68991     12.94599         0.000331      0.004105      0.007535
      0.98234      1.07839      3.24586         0.000858      0.001871      0.007293
      7.98754      1.07909      3.24586        -0.000354      0.000011      0.000028
      0.98159      7.96185      3.24586        -0.000166      0.000280     -0.000083
      7.98679      7.96254      3.24586         0.000005      0.000022      0.000018
      0.98234      1.07839      8.09592        -0.000104     -0.000039     -0.000280
      7.98754      1.07909      8.09592        -0.000152     -0.000030     -0.000190
      0.98159      7.96185      8.09592         0.000043     -0.000097     -0.000088
      7.98679      7.96254      8.09592        -0.000017     -0.000030      0.000019
      0.98234      1.07839     12.94599        -0.002464     -0.001261      0.003722
      7.98754      1.07909     12.94599        -0.000808      0.000147      0.000243
      0.98159      7.96185     12.94599        -0.000034     -0.000090      0.000230
      7.98679      7.96254     12.94599        -0.000065      0.000015      0.000078
      0.00694      0.00000      0.80446        -0.027769     -0.002577     -0.030831
      7.00520      0.00070      0.79726         0.000471      0.000137     -0.000108
     -0.00075      6.88346      0.79726         0.000199      0.000209     -0.000583
      7.00445      6.88415      0.79726         0.000089      0.000018     -0.000139
      0.00000      0.00000      5.64732         0.000264      0.000011      0.002327
      7.00520      0.00070      5.64732         0.001111      0.000498      0.000312
     -0.00075      6.88346      5.64732        -0.000100     -0.000020      0.000219
      7.00445      6.88415      5.64732        -0.000028      0.000069     -0.000075
      0.00000      0.00000     10.49739         0.000259      0.000098      0.002297
      7.00520      0.00070     10.49739         0.001102      0.000338      0.000311
     -0.00075      6.88346     10.49739        -0.000101      0.000124      0.000220
      7.00445      6.88415     10.49739        -0.000028      0.000034     -0.000075
      3.50260      0.00035      3.22217         0.005005     -0.001970      0.002825
     10.50780      0.00104      3.22217         0.001005     -0.000826     -0.001402
      3.50185      6.88380      3.22217         0.000101     -0.000075      0.000057
     10.50705      6.88450      3.22217        -0.000054     -0.000114     -0.000049
      3.50260      0.00035      8.07224         0.000252     -0.000167      0.000038
     10.50780      0.00104      8.07224         0.000204     -0.000240      0.000086
      3.50185      6.88380      8.07224         0.000073     -0.000038      0.000088
     10.50705      6.88450      8.07224         0.000112     -0.000060      0.000050
      3.50260      0.00035     12.92230         0.000790     -0.000596     -0.001213
     10.50780      0.00104     12.92230         0.005130     -0.001843      0.002592
      3.50185      6.88380     12.92230        -0.000032     -0.000277     -0.000070
     10.50705      6.88450     12.92230         0.000080     -0.000159      0.000078
     -0.00038      3.44173      2.43625        -0.001813      0.003402      0.000687
      7.00482      3.44242      2.43625         0.000101      0.000087     -0.000039
     -0.00113     10.32518      2.43625        -0.000883     -0.002620      0.001586
      7.00407     10.32588      2.43625         0.000111      0.000110     -0.000031
     -0.00038      3.44173      7.28632         0.000028      0.000042      0.000420
      7.00482      3.44242      7.28632         0.000018      0.000136      0.000029
     -0.00113     10.32518      7.28632         0.000022      0.000121      0.000414
      7.00407     10.32588      7.28632         0.000116      0.000063      0.000121
     -0.00038      3.44173     12.13638        -0.000274     -0.001200      0.001194
      7.00482      3.44242     12.13638         0.000272     -0.000026     -0.000085
     -0.00113     10.32518     12.13638         0.000754      0.001448      0.002183
      7.00407     10.32588     12.13638         0.000338      0.000103     -0.000027
      3.50222      3.44208      0.01111         0.000620     -0.000288      0.000312
     10.50742      3.44277      0.01111         0.000330     -0.000558      0.000040
      3.50147     10.32553      0.01111         0.001165     -0.000655     -0.000211
     10.50667     10.32623      0.01111         0.000872      0.000459     -0.000477
      3.50222      3.44208      4.86117         0.000134      0.000086      0.000206
     10.50742      3.44277      4.86117        -0.000033     -0.000243      0.000043
      3.50147     10.32553      4.86117         0.000035     -0.000504      0.000301
     10.50667     10.32623      4.86117        -0.000132     -0.000066      0.000139
      3.50222      3.44208      9.71124         0.000018      0.000017      0.000117
     10.50742      3.44277      9.71124         0.000123     -0.000039      0.000217
      3.50147     10.32553      9.71124         0.000110     -0.000044      0.000028
     10.50667     10.32623      9.71124         0.000216     -0.000140      0.000128
 -----------------------------------------------------------------------------------
    total drift:                                0.000001     -0.000001      0.000001


--------------------------------------------------------------------------------------------------------



  FREE ENERGIE OF THE ION-ELECTRON SYSTEM (eV)
  ---------------------------------------------------
  free  energy   TOTEN  =      -505.12820212 eV

  energy  without entropy=     -505.11298010  energy(sigma->0) =     -505.12059111
 


--------------------------------------------------------------------------------------------------------


    POTLOK:  cpu time    2.8992: real time    2.9205


--------------------------------------------------------------------------------------------------------


     LOOP+:  cpu time19576.1994: real time19626.1877
    4ORBIT:  cpu time    0.0000: real time    0.0000

 total amount of memory used by VASP MPI-rank0  1502421. kBytes
=======================================================================

   base      :      30000. kBytes
   nonl-proj :      48757. kBytes
   fftplans  :     217509. kBytes
   grid      :      89026. kBytes
   one-center:        233. kBytes
   wavefun   :    1116896. kBytes
 
  
  
 General timing and accounting informations for this job:
 ========================================================
  
                  Total CPU time used (sec):    19795.102
                            User time (sec):    19778.577
                          System time (sec):       16.524
                         Elapsed time (sec):    19849.385
  
                   Maximum memory used (kb):     1857500.
                   Average memory used (kb):           0.
  
                          Minor page faults:      1917680
                          Major page faults:           11
                 Voluntary context switches:       197564
