<?xml version="1.0" encoding="ISO-8859-1"?>
<modeling>
 <generator>
  <i name="program" type="string">vasp </i>
  <i name="version" type="string">5.4.4.18Apr17-6-g9f103f2a35  </i>
  <i name="subversion" type="string">(build Jul 30 2020 14:31:59) complex            parallel </i>
  <i name="platform" type="string">LinuxIFC </i>
  <i name="date" type="string">2021 02 04 </i>
  <i name="time" type="string">08:17:35 </i>
 </generator>
 <incar>
  <i type="string" name="PREC">accurate</i>
  <i type="string" name="ALGO"> normal</i>
  <i type="logical" name="ADDGRID"> T  </i>
  <i type="int" name="ISPIN">     1</i>
  <i type="int" name="NELM">   200</i>
  <i type="int" name="NELMIN">     8</i>
  <i name="EDIFF">      0.00000001</i>
  <i type="int" name="ISIF">     3</i>
  <i type="int" name="ISYM">     0</i>
  <i name="ENCUT">    650.00000000</i>
  <i type="logical" name="LREAL"> F  </i>
  <i type="int" name="ISMEAR">     0</i>
  <i name="SIGMA">      0.05000000</i>
  <i type="logical" name="LWAVE"> F  </i>
  <i type="logical" name="LASPH"> T  </i>
  <v type="int" name="KPOINT_BSE">    -1     0     0     0</v>
  <i type="int" name="NELM">   200</i>
  <i type="string" name="GGA"> ps</i>
  <i type="logical" name="LASPH"> T  </i>
 </incar>
 <structure name="primitive_cell" >
  <crystal>
   <varray name="basis" >
    <v>      14.01039598       0.00139138       0.00000000 </v>
    <v>      -0.00150196      13.76691092       0.00000000 </v>
    <v>       0.00000000       0.00000000      14.55019386 </v>
   </varray>
   <i name="volume">   2806.43958022 </i>
   <varray name="rec_basis" >
    <v>       0.07137557       0.00000779       0.00000000 </v>
    <v>      -0.00000721       0.07263794       0.00000000 </v>
    <v>       0.00000000       0.00000000       0.06872761 </v>
   </varray>
  </crystal>
  <varray name="positions" >
   <v>       0.42987898       0.17167077       0.33247735 </v>
   <v>      -0.50000000       0.00000000       0.38812698 </v>
   <v>       0.25000000       0.25000000       0.33409665 </v>
   <v>      -0.50000000       0.25000000       0.16743769 </v>
   <v>      -0.42987656       0.07832506       0.22308000 </v>
   <v>      -0.50000000       0.25000000      -0.49922898 </v>
   <v>       0.32012224       0.17167631       0.49914189 </v>
   <v>       0.32012224       0.17167631       0.16580856 </v>
   <v>      -0.42987898       0.32832923       0.33247735 </v>
   <v>       0.42987656      -0.07832506       0.22308000 </v>
   <v>       0.42987656       0.42167494       0.22308000 </v>
   <v>       0.25000000       0.00000000       0.22145206 </v>
   <v>       0.17987948       0.07832633       0.38974408 </v>
   <v>      -0.32012052       0.07832633       0.38974408 </v>
   <v>       0.32012052      -0.07832633       0.38974408 </v>
   <v>       0.32012052       0.42167367       0.38974408 </v>
   <v>      -0.42987656       0.07832506      -0.44358667 </v>
   <v>      -0.25000000       0.25000000       0.33409665 </v>
   <v>      -0.50000000      -0.50000000       0.38812698 </v>
   <v>       0.25000000       0.00000000      -0.44521461 </v>
   <v>       0.42987656      -0.07832506      -0.44358667 </v>
   <v>       0.42987656       0.42167494      -0.44358667 </v>
   <v>      -0.32012224       0.32832369       0.49914189 </v>
   <v>      -0.32012224       0.32832369       0.16580856 </v>
   <v>       0.17987776       0.32832369       0.49914189 </v>
   <v>       0.17987776       0.32832369       0.16580856 </v>
   <v>      -0.50000000       0.00000000       0.05479365 </v>
   <v>       0.42987898       0.17167077      -0.33418932 </v>
   <v>       0.42987898       0.17167077      -0.00085599 </v>
   <v>      -0.42987898      -0.17167077       0.33247735 </v>
   <v>      -0.25000000       0.00000000       0.22145206 </v>
   <v>       0.25000000      -0.50000000       0.22145206 </v>
   <v>       0.07012344       0.07832506       0.22308000 </v>
   <v>       0.17987948       0.07832633       0.05641075 </v>
   <v>      -0.32012052       0.07832633       0.05641075 </v>
   <v>       0.07012102       0.32832923       0.33247735 </v>
   <v>       0.32012052      -0.07832633       0.05641075 </v>
   <v>       0.32012052       0.42167367       0.05641075 </v>
   <v>       0.25000000       0.25000000       0.00076332 </v>
   <v>       0.25000000       0.25000000      -0.33257001 </v>
   <v>      -0.42987898       0.32832923      -0.33418932 </v>
   <v>      -0.42987898       0.32832923      -0.00085599 </v>
   <v>      -0.17987776       0.17167631       0.49914189 </v>
   <v>      -0.17987776       0.17167631       0.16580856 </v>
   <v>      -0.25000000       0.00000000      -0.44521461 </v>
   <v>       0.25000000      -0.50000000      -0.44521461 </v>
   <v>       0.07012344       0.07832506      -0.44358667 </v>
   <v>      -0.50000000      -0.50000000       0.05479365 </v>
   <v>      -0.42987656      -0.42167494       0.22308000 </v>
   <v>      -0.50000000       0.00000000      -0.27853968 </v>
   <v>       0.25000000      -0.25000000       0.33409665 </v>
   <v>      -0.50000000      -0.25000000       0.16743769 </v>
   <v>       0.17987776      -0.17167631       0.49914189 </v>
   <v>       0.17987776      -0.17167631       0.16580856 </v>
   <v>      -0.32012224      -0.17167631       0.49914189 </v>
   <v>      -0.32012224      -0.17167631       0.16580856 </v>
   <v>      -0.50000000      -0.25000000      -0.49922898 </v>
   <v>      -0.17987948       0.42167367       0.38974408 </v>
   <v>      -0.17987948      -0.07832633       0.38974408 </v>
   <v>       0.00000000       0.00000000       0.38812698 </v>
   <v>      -0.25000000      -0.50000000       0.22145206 </v>
   <v>       0.00000000       0.25000000       0.16743769 </v>
   <v>       0.00000000       0.25000000      -0.49922898 </v>
   <v>      -0.32012052      -0.42167367       0.38974408 </v>
   <v>       0.17987948      -0.42167367       0.38974408 </v>
   <v>      -0.25000000       0.25000000       0.00076332 </v>
   <v>      -0.25000000       0.25000000      -0.33257001 </v>
   <v>      -0.42987656      -0.42167494      -0.44358667 </v>
   <v>       0.17987948       0.07832633      -0.27692259 </v>
   <v>      -0.32012052       0.07832633      -0.27692259 </v>
   <v>       0.32012052      -0.07832633      -0.27692259 </v>
   <v>       0.32012052       0.42167367      -0.27692259 </v>
   <v>      -0.42987656       0.07832506      -0.11025334 </v>
   <v>       0.42987898      -0.32832923       0.33247735 </v>
   <v>       0.07012102      -0.17167077       0.33247735 </v>
   <v>      -0.07012102       0.17167077       0.33247735 </v>
   <v>      -0.42987898      -0.17167077      -0.33418932 </v>
   <v>      -0.42987898      -0.17167077      -0.00085599 </v>
   <v>      -0.25000000      -0.50000000      -0.44521461 </v>
   <v>       0.42987656      -0.07832506      -0.11025334 </v>
   <v>       0.42987656       0.42167494      -0.11025334 </v>
   <v>      -0.50000000      -0.50000000      -0.27853968 </v>
   <v>       0.07012102       0.32832923      -0.33418932 </v>
   <v>       0.07012102       0.32832923      -0.00085599 </v>
   <v>       0.25000000       0.00000000      -0.11188127 </v>
   <v>      -0.25000000      -0.25000000       0.33409665 </v>
   <v>      -0.50000000       0.25000000      -0.16589565 </v>
   <v>       0.32012224       0.17167631      -0.16752478 </v>
   <v>       0.32012224      -0.32832369       0.49914189 </v>
   <v>       0.32012224      -0.32832369       0.16580856 </v>
   <v>       0.00000000      -0.50000000       0.38812698 </v>
   <v>      -0.17987948       0.42167367       0.05641075 </v>
   <v>      -0.17987948      -0.07832633       0.05641075 </v>
   <v>       0.00049507       0.00000000       0.05528872 </v>
   <v>       0.07012344      -0.42167494       0.22308000 </v>
   <v>      -0.32012052      -0.42167367       0.05641075 </v>
   <v>       0.17987948      -0.42167367       0.05641075 </v>
   <v>       0.25000000      -0.25000000       0.00076332 </v>
   <v>      -0.07012344       0.42167494       0.22308000 </v>
   <v>      -0.07012344      -0.07832506       0.22308000 </v>
   <v>       0.25000000      -0.25000000      -0.33257001 </v>
   <v>       0.07012344      -0.42167494      -0.44358667 </v>
   <v>      -0.25000000       0.00000000      -0.11188127 </v>
   <v>       0.07012344       0.07832506      -0.11025334 </v>
   <v>       0.25000000      -0.50000000      -0.11188127 </v>
   <v>      -0.32012224       0.32832369      -0.16752478 </v>
   <v>       0.17987776       0.32832369      -0.16752478 </v>
   <v>       0.42987898      -0.32832923      -0.33418932 </v>
   <v>       0.42987898      -0.32832923      -0.00085599 </v>
   <v>       0.07012102      -0.17167077      -0.33418932 </v>
   <v>       0.07012102      -0.17167077      -0.00085599 </v>
   <v>      -0.07012344       0.42167494      -0.44358667 </v>
   <v>      -0.07012344      -0.07832506      -0.44358667 </v>
   <v>      -0.07012102       0.17167077      -0.33418932 </v>
   <v>      -0.07012102       0.17167077      -0.00085599 </v>
   <v>       0.00000000      -0.50000000       0.05479365 </v>
   <v>       0.00000000       0.00000000      -0.27853968 </v>
   <v>      -0.17987948       0.42167367      -0.27692259 </v>
   <v>      -0.17987948      -0.07832633      -0.27692259 </v>
   <v>       0.00000000      -0.25000000       0.16743769 </v>
   <v>      -0.32012052      -0.42167367      -0.27692259 </v>
   <v>       0.17987948      -0.42167367      -0.27692259 </v>
   <v>       0.00000000      -0.25000000      -0.49922898 </v>
   <v>      -0.42987656      -0.42167494      -0.11025334 </v>
   <v>      -0.25000000      -0.25000000       0.00076332 </v>
   <v>      -0.25000000      -0.25000000      -0.33257001 </v>
   <v>      -0.25000000      -0.50000000      -0.11188127 </v>
   <v>      -0.17987776       0.17167631      -0.16752478 </v>
   <v>      -0.17987776      -0.32832369       0.49914189 </v>
   <v>      -0.17987776      -0.32832369       0.16580856 </v>
   <v>      -0.50000000      -0.25000000      -0.16589565 </v>
   <v>       0.17987776      -0.17167631      -0.16752478 </v>
   <v>      -0.32012224      -0.17167631      -0.16752478 </v>
   <v>       0.00000000      -0.50000000      -0.27853968 </v>
   <v>       0.00000000       0.25000000      -0.16589565 </v>
   <v>      -0.07012102      -0.32832923       0.33247735 </v>
   <v>       0.07012344      -0.42167494      -0.11025334 </v>
   <v>      -0.07012344       0.42167494      -0.11025334 </v>
   <v>      -0.07012344      -0.07832506      -0.11025334 </v>
   <v>       0.32012224      -0.32832369      -0.16752478 </v>
   <v>      -0.07012102      -0.32832923      -0.33418932 </v>
   <v>      -0.07012102      -0.32832923      -0.00085599 </v>
   <v>       0.00000000      -0.25000000      -0.16589565 </v>
   <v>      -0.17987776      -0.32832369      -0.16752478 </v>
  </varray>
 </structure>
 <varray name="primitive_index" >
  <v type="int" >        1 </v>
  <v type="int" >      102 </v>
  <v type="int" >      137 </v>
  <v type="int" >      122 </v>
  <v type="int" >       86 </v>
  <v type="int" >      126 </v>
  <v type="int" >       65 </v>
  <v type="int" >       61 </v>
  <v type="int" >       14 </v>
  <v type="int" >       75 </v>
  <v type="int" >       73 </v>
  <v type="int" >      109 </v>
  <v type="int" >       41 </v>
  <v type="int" >       42 </v>
  <v type="int" >       31 </v>
  <v type="int" >       29 </v>
  <v type="int" >       90 </v>
  <v type="int" >      138 </v>
  <v type="int" >      104 </v>
  <v type="int" >      113 </v>
  <v type="int" >       79 </v>
  <v type="int" >       77 </v>
  <v type="int" >       54 </v>
  <v type="int" >       50 </v>
  <v type="int" >       53 </v>
  <v type="int" >       49 </v>
  <v type="int" >       98 </v>
  <v type="int" >        5 </v>
  <v type="int" >        9 </v>
  <v type="int" >       16 </v>
  <v type="int" >      110 </v>
  <v type="int" >      111 </v>
  <v type="int" >       85 </v>
  <v type="int" >       37 </v>
  <v type="int" >       38 </v>
  <v type="int" >       13 </v>
  <v type="int" >       27 </v>
  <v type="int" >       25 </v>
  <v type="int" >      133 </v>
  <v type="int" >      141 </v>
  <v type="int" >       18 </v>
  <v type="int" >       22 </v>
  <v type="int" >       66 </v>
  <v type="int" >       62 </v>
  <v type="int" >      114 </v>
  <v type="int" >      115 </v>
  <v type="int" >       89 </v>
  <v type="int" >      100 </v>
  <v type="int" >       88 </v>
  <v type="int" >      106 </v>
  <v type="int" >      139 </v>
  <v type="int" >      124 </v>
  <v type="int" >       55 </v>
  <v type="int" >       51 </v>
  <v type="int" >       56 </v>
  <v type="int" >       52 </v>
  <v type="int" >      128 </v>
  <v type="int" >       30 </v>
  <v type="int" >       32 </v>
  <v type="int" >      101 </v>
  <v type="int" >      112 </v>
  <v type="int" >      121 </v>
  <v type="int" >      125 </v>
  <v type="int" >       44 </v>
  <v type="int" >       43 </v>
  <v type="int" >      134 </v>
  <v type="int" >      142 </v>
  <v type="int" >       92 </v>
  <v type="int" >       45 </v>
  <v type="int" >       46 </v>
  <v type="int" >       35 </v>
  <v type="int" >       33 </v>
  <v type="int" >       94 </v>
  <v type="int" >        3 </v>
  <v type="int" >       15 </v>
  <v type="int" >        2 </v>
  <v type="int" >       20 </v>
  <v type="int" >       24 </v>
  <v type="int" >      116 </v>
  <v type="int" >       83 </v>
  <v type="int" >       81 </v>
  <v type="int" >      108 </v>
  <v type="int" >       17 </v>
  <v type="int" >       21 </v>
  <v type="int" >      117 </v>
  <v type="int" >      140 </v>
  <v type="int" >      130 </v>
  <v type="int" >       69 </v>
  <v type="int" >       67 </v>
  <v type="int" >       63 </v>
  <v type="int" >      103 </v>
  <v type="int" >       26 </v>
  <v type="int" >       28 </v>
  <v type="int" >       97 </v>
  <v type="int" >       87 </v>
  <v type="int" >       40 </v>
  <v type="int" >       39 </v>
  <v type="int" >      135 </v>
  <v type="int" >       74 </v>
  <v type="int" >       76 </v>
  <v type="int" >      143 </v>
  <v type="int" >       91 </v>
  <v type="int" >      118 </v>
  <v type="int" >       93 </v>
  <v type="int" >      119 </v>
  <v type="int" >       58 </v>
  <v type="int" >       57 </v>
  <v type="int" >        7 </v>
  <v type="int" >       11 </v>
  <v type="int" >       19 </v>
  <v type="int" >       23 </v>
  <v type="int" >       78 </v>
  <v type="int" >       80 </v>
  <v type="int" >        6 </v>
  <v type="int" >       10 </v>
  <v type="int" >       99 </v>
  <v type="int" >      105 </v>
  <v type="int" >       34 </v>
  <v type="int" >       36 </v>
  <v type="int" >      123 </v>
  <v type="int" >       48 </v>
  <v type="int" >       47 </v>
  <v type="int" >      127 </v>
  <v type="int" >       96 </v>
  <v type="int" >      136 </v>
  <v type="int" >      144 </v>
  <v type="int" >      120 </v>
  <v type="int" >       70 </v>
  <v type="int" >       68 </v>
  <v type="int" >       64 </v>
  <v type="int" >      132 </v>
  <v type="int" >       59 </v>
  <v type="int" >       60 </v>
  <v type="int" >      107 </v>
  <v type="int" >      129 </v>
  <v type="int" >        4 </v>
  <v type="int" >       95 </v>
  <v type="int" >       82 </v>
  <v type="int" >       84 </v>
  <v type="int" >       71 </v>
  <v type="int" >        8 </v>
  <v type="int" >       12 </v>
  <v type="int" >      131 </v>
  <v type="int" >       72 </v>
 </varray>
 <kpoints>
  <generation param="Gamma">
   <v type="int" name="divisions">       2        2        2 </v>
   <v name="usershift">      0.00000000       0.00000000       0.00000000 </v>
   <v name="genvec1">      0.50000000       0.00000000       0.00000000 </v>
   <v name="genvec2">      0.00000000       0.50000000       0.00000000 </v>
   <v name="genvec3">      0.00000000       0.00000000       0.50000000 </v>
   <v name="shift">      0.00000000       0.00000000       0.00000000 </v>
  </generation>
  <varray name="kpointlist" >
   <v>       0.00000000       0.00000000       0.00000000 </v>
   <v>       0.50000000      -0.00000000       0.00000000 </v>
   <v>       0.00000000       0.50000000       0.00000000 </v>
   <v>       0.50000000       0.50000000       0.00000000 </v>
   <v>       0.00000000       0.00000000       0.50000000 </v>
   <v>       0.50000000      -0.00000000       0.50000000 </v>
   <v>       0.00000000       0.50000000       0.50000000 </v>
   <v>       0.50000000       0.50000000       0.50000000 </v>
  </varray>
  <varray name="weights" >
   <v>       0.12500000 </v>
   <v>       0.12500000 </v>
   <v>       0.12500000 </v>
   <v>       0.12500000 </v>
   <v>       0.12500000 </v>
   <v>       0.12500000 </v>
   <v>       0.12500000 </v>
   <v>       0.12500000 </v>
  </varray>
 </kpoints>
 <parameters>
  <separator name="general" >
   <i type="string" name="SYSTEM">unknown system</i>
   <i type="logical" name="LCOMPAT"> F  </i>
  </separator>
  <separator name="electronic" >
   <i type="string" name="PREC">accura</i>
   <i name="ENMAX">    650.00000000</i>
   <i name="ENAUG">    446.84200000</i>
   <i name="EDIFF">      0.00000001</i>
   <i type="int" name="IALGO">    38</i>
   <i type="int" name="IWAVPR">    10</i>
   <i type="int" name="NBANDS">   806</i>
   <i name="NELECT">   1344.00000000</i>
   <i type="int" name="TURBO">     0</i>
   <i type="int" name="IRESTART">     0</i>
   <i type="int" name="NREBOOT">     0</i>
   <i type="int" name="NMIN">     0</i>
   <i name="EREF">      0.00000000</i>
   <separator name="electronic smearing" >
    <i type="int" name="ISMEAR">     0</i>
    <i name="SIGMA">      0.05000000</i>
    <i name="KSPACING">      0.50000000</i>
    <i type="logical" name="KGAMMA"> T  </i>
   </separator>
   <separator name="electronic projectors" >
    <i type="logical" name="LREAL"> F  </i>
    <v name="ROPT">      0.00000000      0.00000000</v>
    <i type="int" name="LMAXPAW">  -100</i>
    <i type="int" name="LMAXMIX">     2</i>
    <i type="logical" name="NLSPLINE"> F  </i>
   </separator>
   <separator name="electronic startup" >
    <i type="int" name="ISTART">     0</i>
    <i type="int" name="ICHARG">     2</i>
    <i type="int" name="INIWAV">     1</i>
   </separator>
   <separator name="electronic spin" >
    <i type="int" name="ISPIN">     1</i>
    <i type="logical" name="LNONCOLLINEAR"> F  </i>
    <v name="MAGMOM">      1.00000000      1.00000000      1.00000000      1.00000000      1.00000000      1.00000000      1.00000000      1.00000000      1.00000000      1.00000000      1.00000000      1.00000000      1.00000000      1.00000000      1.00000000      1.00000000      1.00000000      1.00000000      1.00000000      1.00000000
      1.00000000      1.00000000      1.00000000      1.00000000      1.00000000      1.00000000      1.00000000      1.00000000      1.00000000      1.00000000      1.00000000      1.00000000      1.00000000      1.00000000      1.00000000      1.00000000      1.00000000      1.00000000      1.00000000      1.00000000
      1.00000000      1.00000000      1.00000000      1.00000000      1.00000000      1.00000000      1.00000000      1.00000000      1.00000000      1.00000000      1.00000000      1.00000000      1.00000000      1.00000000      1.00000000      1.00000000      1.00000000      1.00000000      1.00000000      1.00000000
      1.00000000      1.00000000      1.00000000      1.00000000      1.00000000      1.00000000      1.00000000      1.00000000      1.00000000      1.00000000      1.00000000      1.00000000      1.00000000      1.00000000      1.00000000      1.00000000      1.00000000      1.00000000      1.00000000      1.00000000
      1.00000000      1.00000000      1.00000000      1.00000000      1.00000000      1.00000000      1.00000000      1.00000000      1.00000000      1.00000000      1.00000000      1.00000000      1.00000000      1.00000000      1.00000000      1.00000000      1.00000000      1.00000000      1.00000000      1.00000000
      1.00000000      1.00000000      1.00000000      1.00000000      1.00000000      1.00000000      1.00000000      1.00000000      1.00000000      1.00000000      1.00000000      1.00000000      1.00000000      1.00000000      1.00000000      1.00000000      1.00000000      1.00000000      1.00000000      1.00000000
      1.00000000      1.00000000      1.00000000      1.00000000      1.00000000      1.00000000      1.00000000      1.00000000      1.00000000      1.00000000      1.00000000      1.00000000      1.00000000      1.00000000      1.00000000      1.00000000      1.00000000      1.00000000      1.00000000      1.00000000
      1.00000000      1.00000000      1.00000000      1.00000000</v>
    <i name="NUPDOWN">     -1.00000000</i>
    <i type="logical" name="LSORBIT"> F  </i>
    <v name="SAXIS">      0.00000000      0.00000000      1.00000000</v>
    <i type="logical" name="LSPIRAL"> F  </i>
    <v name="QSPIRAL">      0.00000000      0.00000000      0.00000000</v>
    <i type="logical" name="LZEROZ"> F  </i>
   </separator>
   <separator name="electronic exchange-correlation" >
    <i type="logical" name="LASPH"> T  </i>
    <i type="logical" name="LMETAGGA"> F  </i>
   </separator>
   <separator name="electronic convergence" >
    <i type="int" name="NELM">   200</i>
    <i type="int" name="NELMDL">    -5</i>
    <i type="int" name="NELMIN">     8</i>
    <i name="ENINI">    650.00000000</i>
    <separator name="electronic convergence detail" >
     <i type="logical" name="LDIAG"> T  </i>
     <i type="logical" name="LSUBROT"> F  </i>
     <i name="WEIMIN">      0.00000000</i>
     <i name="EBREAK">      0.00000000</i>
     <i name="DEPER">      0.30000000</i>
     <i type="int" name="NRMM">     4</i>
     <i name="TIME">      0.40000000</i>
    </separator>
   </separator>
   <separator name="electronic mixer" >
    <i name="AMIX">      0.40000000</i>
    <i name="BMIX">      1.00000000</i>
    <i name="AMIN">      0.10000000</i>
    <i name="AMIX_MAG">      1.60000000</i>
    <i name="BMIX_MAG">      1.00000000</i>
    <separator name="electronic mixer details" >
     <i type="int" name="IMIX">     4</i>
     <i type="logical" name="MIXFIRST"> F  </i>
     <i type="int" name="MAXMIX">   -45</i>
     <i name="WC">    100.00000000</i>
     <i type="int" name="INIMIX">     1</i>
     <i type="int" name="MIXPRE">     1</i>
     <i type="int" name="MREMOVE">     5</i>
    </separator>
   </separator>
   <separator name="electronic dipolcorrection" >
    <i type="logical" name="LDIPOL"> F  </i>
    <i type="logical" name="LMONO"> F  </i>
    <i type="int" name="IDIPOL">     0</i>
    <i name="EPSILON">      1.00000000</i>
    <v name="DIPOL">   -100.00000000   -100.00000000   -100.00000000</v>
    <i name="EFIELD">      0.00000000</i>
   </separator>
  </separator>
  <separator name="grids" >
   <i type="int" name="NGX">   120</i>
   <i type="int" name="NGY">   120</i>
   <i type="int" name="NGZ">   126</i>
   <i type="int" name="NGXF">   240</i>
   <i type="int" name="NGYF">   240</i>
   <i type="int" name="NGZF">   252</i>
   <i type="logical" name="ADDGRID"> T  </i>
  </separator>
  <separator name="ionic" >
   <i type="int" name="NSW">     0</i>
   <i type="int" name="IBRION">    -1</i>
   <i type="int" name="MDALGO">     0</i>
   <i type="int" name="ISIF">     3</i>
   <i name="PSTRESS">      0.00000000</i>
   <i name="EDIFFG">      0.00000010</i>
   <i type="int" name="NFREE">     0</i>
   <i name="POTIM">      0.50000000</i>
   <i name="SMASS">     -3.00000000</i>
   <i name="SCALEE">      1.00000000</i>
  </separator>
  <separator name="ionic md" >
   <i name="TEBEG">      0.00010000</i>
   <i name="TEEND">      0.00010000</i>
   <i type="int" name="NBLOCK">     1</i>
   <i type="int" name="KBLOCK">     1</i>
   <i type="int" name="NPACO">   256</i>
   <i name="APACO">     16.00000000</i>
  </separator>
  <separator name="symmetry" >
   <i type="int" name="ISYM">     0</i>
   <i name="SYMPREC">      0.00001000</i>
  </separator>
  <separator name="dos" >
   <i type="int" name="LORBIT">     0</i>
   <v name="RWIGS">     -1.00000000     -1.00000000</v>
   <i type="int" name="NEDOS">   301</i>
   <i name="EMIN">     10.00000000</i>
   <i name="EMAX">    -10.00000000</i>
   <i name="EFERMI">      0.00000000</i>
  </separator>
  <separator name="writing" >
   <i type="int" name="NWRITE">     2</i>
   <i type="logical" name="LWAVE"> F  </i>
   <i type="logical" name="LDOWNSAMPLE"> F  </i>
   <i type="logical" name="LCHARG"> T  </i>
   <i type="logical" name="LPARD"> F  </i>
   <i type="logical" name="LVTOT"> F  </i>
   <i type="logical" name="LVHAR"> F  </i>
   <i type="logical" name="LELF"> F  </i>
   <i type="logical" name="LOPTICS"> F  </i>
   <v name="STM">      0.00000000      0.00000000      0.00000000      0.00000000      0.00000000      0.00000000      0.00000000</v>
  </separator>
  <separator name="performance" >
   <i type="int" name="NPAR">     1</i>
   <i type="int" name="NSIM">     4</i>
   <i type="int" name="NBLK">    -1</i>
   <i type="logical" name="LPLANE"> T  </i>
   <i type="logical" name="LSCALAPACK"> T  </i>
   <i type="logical" name="LSCAAWARE"> F  </i>
   <i type="logical" name="LSCALU"> F  </i>
   <i type="logical" name="LASYNC"> F  </i>
   <i type="logical" name="LORBITALREAL"> F  </i>
  </separator>
  <separator name="miscellaneous" >
   <i type="int" name="IDIOT">     3</i>
   <i type="int" name="ISPECIAL">     0</i>
   <i type="logical" name="LMUSIC"> F  </i>
   <v name="POMASS">    107.86800000     78.96000000</v>
   <v name="DARWINR">      0.00000000      0.00000000</v>
   <v name="DARWINV">      1.00000000      1.00000000</v>
   <i type="logical" name="LCORR"> T  </i>
  </separator>
  <i type="logical" name="GGA_COMPAT"> T  </i>
  <i type="logical" name="LBERRY"> F  </i>
  <i type="int" name="ICORELEVEL">     0</i>
  <i type="logical" name="LDAU"> F  </i>
  <i type="int" name="I_CONSTRAINED_M">     0</i>
  <separator name="electronic exchange-correlation" >
   <i type="string" name="GGA">PS</i>
   <i type="int" name="VOSKOWN">     0</i>
   <i type="logical" name="LHFCALC"> F  </i>
   <i type="string" name="PRECFOCK"></i>
   <i type="logical" name="LSYMGRAD"> F  </i>
   <i type="logical" name="LHFONE"> F  </i>
   <i type="logical" name="LRHFCALC"> F  </i>
   <i type="logical" name="LTHOMAS"> F  </i>
   <i type="logical" name="LMODELHF"> F  </i>
   <i name="ENCUT4O">     -1.00000000</i>
   <i type="int" name="EXXOEP">     0</i>
   <i type="int" name="FOURORBIT">     0</i>
   <i name="AEXX">      0.00000000</i>
   <i name="HFALPHA">      0.00000000</i>
   <i name="MCALPHA">      0.00000000</i>
   <i name="ALDAX">      1.00000000</i>
   <i name="AGGAX">      1.00000000</i>
   <i name="ALDAC">      1.00000000</i>
   <i name="AGGAC">      1.00000000</i>
   <i type="int" name="NKREDX">     1</i>
   <i type="int" name="NKREDY">     1</i>
   <i type="int" name="NKREDZ">     1</i>
   <i type="logical" name="SHIFTRED"> F  </i>
   <i type="logical" name="ODDONLY"> F  </i>
   <i type="logical" name="EVENONLY"> F  </i>
   <i type="int" name="LMAXFOCK">     0</i>
   <i type="int" name="NMAXFOCKAE">     0</i>
   <i type="logical" name="LFOCKAEDFT"> F  </i>
   <i name="HFSCREEN">      0.00000000</i>
   <i name="HFSCREENC">      0.00000000</i>
   <i type="int" name="NBANDSGWLOW">     0</i>
  </separator>
  <separator name="vdW DFT" >
   <i type="logical" name="LUSE_VDW"> F  </i>
   <i name="Zab_VDW">     -0.84910000</i>
   <i name="PARAM1">      0.12340000</i>
   <i name="PARAM2">      1.00000000</i>
   <i name="PARAM3">      0.00000000</i>
  </separator>
  <separator name="model GW" >
   <i type="int" name="MODEL_GW">     0</i>
   <i name="MODEL_EPS0">     11.69349825</i>
   <i name="MODEL_ALPHA">      1.00000000</i>
  </separator>
  <separator name="linear response parameters" >
   <i type="logical" name="LEPSILON"> F  </i>
   <i type="logical" name="LRPA"> F  </i>
   <i type="logical" name="LNABLA"> F  </i>
   <i type="logical" name="LVEL"> F  </i>
   <i type="int" name="KINTER">     0</i>
   <i name="CSHIFT">      0.10000000</i>
   <i name="OMEGAMAX">     -1.00000000</i>
   <i name="DEG_THRESHOLD">      0.00200000</i>
   <i name="RTIME">     -0.10000000</i>
   <i name="WPLASMAI">      0.00000000</i>
   <v name="DFIELD">      0.00000000      0.00000000      0.00000000</v>
   <v name="WPLASMA">      0.00000000      0.00000000      0.00000000      0.00000000      0.00000000      0.00000000      0.00000000      0.00000000      0.00000000</v>
  </separator>
  <separator name="orbital magnetization" >
   <i type="logical" name="NUCIND"> F  </i>
   <v name="MAGPOS">      0.00000000      0.00000000      0.00000000</v>
   <i type="logical" name="LNICSALL"> T  </i>
   <i type="logical" name="ORBITALMAG"> F  </i>
   <i type="logical" name="LMAGBLOCH"> F  </i>
   <i type="logical" name="LCHIMAG"> F  </i>
   <i type="logical" name="LGAUGE"> T  </i>
   <i type="int" name="MAGATOM">     0</i>
   <v name="MAGDIPOL">      0.00000000      0.00000000      0.00000000</v>
   <v name="AVECCONST">      0.00000000      0.00000000      0.00000000</v>
  </separator>
  <separator name="response functions" >
   <i type="logical" name="LADDER"> F  </i>
   <i type="logical" name="LRPAFORCE"> F  </i>
   <i type="logical" name="LFXC"> F  </i>
   <i type="logical" name="LHARTREE"> T  </i>
   <i type="int" name="IBSE">     0</i>
   <v type="int" name="KPOINT">    -1     0     0     0</v>
   <i type="logical" name="LTCTE"> F  </i>
   <i type="logical" name="LTETE"> F  </i>
   <i type="logical" name="LTRIPLET"> F  </i>
   <i type="logical" name="LFXCEPS"> F  </i>
   <i type="logical" name="LFXHEG"> F  </i>
   <i type="int" name="NATURALO">     2</i>
   <i type="logical" name="L2ORDER"> F  </i>
   <i type="logical" name="LMP2LT"> F  </i>
   <i type="logical" name="LUSEW"> F  </i>
   <i name="ENCUTGW">     -2.00000000</i>
   <i name="ENCUTGWSOFT">     -2.00000000</i>
   <i name="ENCUTLF">     -1.00000000</i>
   <i type="int" name="LMAXMP2">    -1</i>
   <i name="SCISSOR">      0.00000000</i>
   <i type="int" name="NOMEGA">     0</i>
   <i type="int" name="NOMEGAR">     0</i>
   <i type="int" name="NBANDSGW">    -1</i>
   <i type="int" name="NBANDSO">    -1</i>
   <i type="int" name="NBANDSV">    -1</i>
   <i type="int" name="NELM">   200</i>
   <i type="int" name="NELMHF">     1</i>
   <i type="int" name="DIM">     3</i>
   <i type="int" name="ANTIRES">     0</i>
   <i name="OMEGAMAX">    -30.00000000</i>
   <i name="OMEGAMIN">    -30.00000000</i>
   <i name="OMEGATL">   -200.00000000</i>
   <i type="int" name="OMEGAGRID">   140</i>
   <i name="CSHIFT">     -0.10000000</i>
   <i type="logical" name="SELFENERGY"> F  </i>
   <i type="logical" name="LSPECTRAL"> F  </i>
   <i type="logical" name="LSPECTRALGW"> F  </i>
   <i type="logical" name="LSINGLES"> F  </i>
   <i type="logical" name="LFERMIGW"> F  </i>
   <i type="logical" name="ODDONLYGW"> F  </i>
   <i type="logical" name="EVENONLYGW"> F  </i>
   <i type="int" name="NKREDLFX">     1</i>
   <i type="int" name="NKREDLFY">     1</i>
   <i type="int" name="NKREDLFZ">     1</i>
   <i type="int" name="MAXMEM">  2800</i>
   <i type="int" name="TELESCOPE">     0</i>
   <i type="int" name="TAUPAR">     1</i>
   <i type="int" name="OMEGAPAR">    -1</i>
   <i name="LAMBDA">      1.00000000</i>
  </separator>
  <separator name="External order field" >
   <i name="OFIELD_KAPPA">      0.00000000</i>
   <v name="OFIELD_K">      0.00000000      0.00000000      0.00000000</v>
   <i name="OFIELD_Q6_NEAR">      0.00000000</i>
   <i name="OFIELD_Q6_FAR">      0.00000000</i>
   <i name="OFIELD_A">      0.00000000</i>
  </separator>
 </parameters>
 <atominfo>
  <atoms>     144 </atoms>
  <types>       2 </types>
  <array name="atoms" >
   <dimension dim="1">ion</dimension>
   <field type="string">element</field>
   <field type="int">atomtype</field>
   <set>
    <rc><c>Ag</c><c>   1</c></rc>
    <rc><c>Ag</c><c>   1</c></rc>
    <rc><c>Ag</c><c>   1</c></rc>
    <rc><c>Ag</c><c>   1</c></rc>
    <rc><c>Ag</c><c>   1</c></rc>
    <rc><c>Ag</c><c>   1</c></rc>
    <rc><c>Ag</c><c>   1</c></rc>
    <rc><c>Ag</c><c>   1</c></rc>
    <rc><c>Ag</c><c>   1</c></rc>
    <rc><c>Ag</c><c>   1</c></rc>
    <rc><c>Ag</c><c>   1</c></rc>
    <rc><c>Ag</c><c>   1</c></rc>
    <rc><c>Ag</c><c>   1</c></rc>
    <rc><c>Ag</c><c>   1</c></rc>
    <rc><c>Ag</c><c>   1</c></rc>
    <rc><c>Ag</c><c>   1</c></rc>
    <rc><c>Ag</c><c>   1</c></rc>
    <rc><c>Ag</c><c>   1</c></rc>
    <rc><c>Ag</c><c>   1</c></rc>
    <rc><c>Ag</c><c>   1</c></rc>
    <rc><c>Ag</c><c>   1</c></rc>
    <rc><c>Ag</c><c>   1</c></rc>
    <rc><c>Ag</c><c>   1</c></rc>
    <rc><c>Ag</c><c>   1</c></rc>
    <rc><c>Ag</c><c>   1</c></rc>
    <rc><c>Ag</c><c>   1</c></rc>
    <rc><c>Ag</c><c>   1</c></rc>
    <rc><c>Ag</c><c>   1</c></rc>
    <rc><c>Ag</c><c>   1</c></rc>
    <rc><c>Ag</c><c>   1</c></rc>
    <rc><c>Ag</c><c>   1</c></rc>
    <rc><c>Ag</c><c>   1</c></rc>
    <rc><c>Ag</c><c>   1</c></rc>
    <rc><c>Ag</c><c>   1</c></rc>
    <rc><c>Ag</c><c>   1</c></rc>
    <rc><c>Ag</c><c>   1</c></rc>
    <rc><c>Ag</c><c>   1</c></rc>
    <rc><c>Ag</c><c>   1</c></rc>
    <rc><c>Ag</c><c>   1</c></rc>
    <rc><c>Ag</c><c>   1</c></rc>
    <rc><c>Ag</c><c>   1</c></rc>
    <rc><c>Ag</c><c>   1</c></rc>
    <rc><c>Ag</c><c>   1</c></rc>
    <rc><c>Ag</c><c>   1</c></rc>
    <rc><c>Ag</c><c>   1</c></rc>
    <rc><c>Ag</c><c>   1</c></rc>
    <rc><c>Ag</c><c>   1</c></rc>
    <rc><c>Ag</c><c>   1</c></rc>
    <rc><c>Ag</c><c>   1</c></rc>
    <rc><c>Ag</c><c>   1</c></rc>
    <rc><c>Ag</c><c>   1</c></rc>
    <rc><c>Ag</c><c>   1</c></rc>
    <rc><c>Ag</c><c>   1</c></rc>
    <rc><c>Ag</c><c>   1</c></rc>
    <rc><c>Ag</c><c>   1</c></rc>
    <rc><c>Ag</c><c>   1</c></rc>
    <rc><c>Ag</c><c>   1</c></rc>
    <rc><c>Ag</c><c>   1</c></rc>
    <rc><c>Ag</c><c>   1</c></rc>
    <rc><c>Ag</c><c>   1</c></rc>
    <rc><c>Ag</c><c>   1</c></rc>
    <rc><c>Ag</c><c>   1</c></rc>
    <rc><c>Ag</c><c>   1</c></rc>
    <rc><c>Ag</c><c>   1</c></rc>
    <rc><c>Ag</c><c>   1</c></rc>
    <rc><c>Ag</c><c>   1</c></rc>
    <rc><c>Ag</c><c>   1</c></rc>
    <rc><c>Ag</c><c>   1</c></rc>
    <rc><c>Ag</c><c>   1</c></rc>
    <rc><c>Ag</c><c>   1</c></rc>
    <rc><c>Ag</c><c>   1</c></rc>
    <rc><c>Ag</c><c>   1</c></rc>
    <rc><c>Ag</c><c>   1</c></rc>
    <rc><c>Ag</c><c>   1</c></rc>
    <rc><c>Ag</c><c>   1</c></rc>
    <rc><c>Ag</c><c>   1</c></rc>
    <rc><c>Ag</c><c>   1</c></rc>
    <rc><c>Ag</c><c>   1</c></rc>
    <rc><c>Ag</c><c>   1</c></rc>
    <rc><c>Ag</c><c>   1</c></rc>
    <rc><c>Ag</c><c>   1</c></rc>
    <rc><c>Ag</c><c>   1</c></rc>
    <rc><c>Ag</c><c>   1</c></rc>
    <rc><c>Ag</c><c>   1</c></rc>
    <rc><c>Ag</c><c>   1</c></rc>
    <rc><c>Ag</c><c>   1</c></rc>
    <rc><c>Ag</c><c>   1</c></rc>
    <rc><c>Ag</c><c>   1</c></rc>
    <rc><c>Ag</c><c>   1</c></rc>
    <rc><c>Ag</c><c>   1</c></rc>
    <rc><c>Ag</c><c>   1</c></rc>
    <rc><c>Ag</c><c>   1</c></rc>
    <rc><c>Ag</c><c>   1</c></rc>
    <rc><c>Ag</c><c>   1</c></rc>
    <rc><c>Ag</c><c>   1</c></rc>
    <rc><c>Ag</c><c>   1</c></rc>
    <rc><c>Se</c><c>   2</c></rc>
    <rc><c>Se</c><c>   2</c></rc>
    <rc><c>Se</c><c>   2</c></rc>
    <rc><c>Se</c><c>   2</c></rc>
    <rc><c>Se</c><c>   2</c></rc>
    <rc><c>Se</c><c>   2</c></rc>
    <rc><c>Se</c><c>   2</c></rc>
    <rc><c>Se</c><c>   2</c></rc>
    <rc><c>Se</c><c>   2</c></rc>
    <rc><c>Se</c><c>   2</c></rc>
    <rc><c>Se</c><c>   2</c></rc>
    <rc><c>Se</c><c>   2</c></rc>
    <rc><c>Se</c><c>   2</c></rc>
    <rc><c>Se</c><c>   2</c></rc>
    <rc><c>Se</c><c>   2</c></rc>
    <rc><c>Se</c><c>   2</c></rc>
    <rc><c>Se</c><c>   2</c></rc>
    <rc><c>Se</c><c>   2</c></rc>
    <rc><c>Se</c><c>   2</c></rc>
    <rc><c>Se</c><c>   2</c></rc>
    <rc><c>Se</c><c>   2</c></rc>
    <rc><c>Se</c><c>   2</c></rc>
    <rc><c>Se</c><c>   2</c></rc>
    <rc><c>Se</c><c>   2</c></rc>
    <rc><c>Se</c><c>   2</c></rc>
    <rc><c>Se</c><c>   2</c></rc>
    <rc><c>Se</c><c>   2</c></rc>
    <rc><c>Se</c><c>   2</c></rc>
    <rc><c>Se</c><c>   2</c></rc>
    <rc><c>Se</c><c>   2</c></rc>
    <rc><c>Se</c><c>   2</c></rc>
    <rc><c>Se</c><c>   2</c></rc>
    <rc><c>Se</c><c>   2</c></rc>
    <rc><c>Se</c><c>   2</c></rc>
    <rc><c>Se</c><c>   2</c></rc>
    <rc><c>Se</c><c>   2</c></rc>
    <rc><c>Se</c><c>   2</c></rc>
    <rc><c>Se</c><c>   2</c></rc>
    <rc><c>Se</c><c>   2</c></rc>
    <rc><c>Se</c><c>   2</c></rc>
    <rc><c>Se</c><c>   2</c></rc>
    <rc><c>Se</c><c>   2</c></rc>
    <rc><c>Se</c><c>   2</c></rc>
    <rc><c>Se</c><c>   2</c></rc>
    <rc><c>Se</c><c>   2</c></rc>
    <rc><c>Se</c><c>   2</c></rc>
    <rc><c>Se</c><c>   2</c></rc>
    <rc><c>Se</c><c>   2</c></rc>
   </set>
  </array>
  <array name="atomtypes" >
   <dimension dim="1">type</dimension>
   <field type="int">atomspertype</field>
   <field type="string">element</field>
   <field>mass</field>
   <field>valence</field>
   <field type="string">pseudopotential</field>
   <set>
    <rc><c>  96</c><c>Ag</c><c>    107.86800000</c><c>     11.00000000</c><c>  PAW_PBE Ag 02Apr2005                  </c></rc>
    <rc><c>  48</c><c>Se</c><c>     78.96000000</c><c>      6.00000000</c><c>  PAW_PBE Se 06Sep2000                  </c></rc>
   </set>
  </array>
 </atominfo>
 <structure name="initialpos" >
  <crystal>
   <varray name="basis" >
    <v>      14.01039598       0.00139138       0.00000000 </v>
    <v>      -0.00150196      13.76691092       0.00000000 </v>
    <v>       0.00000000       0.00000000      14.55019386 </v>
   </varray>
   <i name="volume">   2806.43958022 </i>
   <varray name="rec_basis" >
    <v>       0.07137557       0.00000779       0.00000000 </v>
    <v>      -0.00000721       0.07263794       0.00000000 </v>
    <v>       0.00000000       0.00000000       0.06872761 </v>
   </varray>
  </crystal>
  <varray name="positions" >
   <v>       0.42987898       0.17167077       0.33247735 </v>
   <v>       0.92987898       0.17167077       0.33247735 </v>
   <v>       0.42987898       0.67167077       0.33247735 </v>
   <v>       0.92987898       0.67167077       0.33247735 </v>
   <v>       0.42987898       0.17167077       0.66581068 </v>
   <v>       0.92987898       0.17167077       0.66581068 </v>
   <v>       0.42987898       0.67167077       0.66581068 </v>
   <v>       0.92987898       0.67167077       0.66581068 </v>
   <v>       0.42987898       0.17167077       0.99914401 </v>
   <v>       0.92987898       0.17167077       0.99914401 </v>
   <v>       0.42987898       0.67167077       0.99914401 </v>
   <v>       0.92987898       0.67167077       0.99914401 </v>
   <v>       0.07012102       0.32832923       0.33247735 </v>
   <v>       0.57012102       0.32832923       0.33247735 </v>
   <v>       0.07012102       0.82832923       0.33247735 </v>
   <v>       0.57012102       0.82832923       0.33247735 </v>
   <v>       0.07012102       0.32832923       0.66581068 </v>
   <v>       0.57012102       0.32832923       0.66581068 </v>
   <v>       0.07012102       0.82832923       0.66581068 </v>
   <v>       0.57012102       0.82832923       0.66581068 </v>
   <v>       0.07012102       0.32832923       0.99914401 </v>
   <v>       0.57012102       0.32832923       0.99914401 </v>
   <v>       0.07012102       0.82832923       0.99914401 </v>
   <v>       0.57012102       0.82832923       0.99914401 </v>
   <v>       0.32012053       0.42167367       0.05641075 </v>
   <v>       0.82012053       0.42167367       0.05641075 </v>
   <v>       0.32012053       0.92167367       0.05641075 </v>
   <v>       0.82012053       0.92167367       0.05641075 </v>
   <v>       0.32012053       0.42167367       0.38974408 </v>
   <v>       0.82012053       0.42167367       0.38974408 </v>
   <v>       0.32012053       0.92167367       0.38974408 </v>
   <v>       0.82012053       0.92167367       0.38974408 </v>
   <v>       0.32012053       0.42167367       0.72307741 </v>
   <v>       0.82012053       0.42167367       0.72307741 </v>
   <v>       0.32012053       0.92167367       0.72307741 </v>
   <v>       0.82012053       0.92167367       0.72307741 </v>
   <v>       0.17987947       0.07832633       0.05641075 </v>
   <v>       0.67987947       0.07832633       0.05641075 </v>
   <v>       0.17987947       0.57832633       0.05641075 </v>
   <v>       0.67987947       0.57832633       0.05641075 </v>
   <v>       0.17987947       0.07832633       0.38974408 </v>
   <v>       0.67987947       0.07832633       0.38974408 </v>
   <v>       0.17987947       0.57832633       0.38974408 </v>
   <v>       0.67987947       0.57832633       0.38974408 </v>
   <v>       0.17987947       0.07832633       0.72307741 </v>
   <v>       0.67987947       0.07832633       0.72307741 </v>
   <v>       0.17987947       0.57832633       0.72307741 </v>
   <v>       0.67987947       0.57832633       0.72307741 </v>
   <v>       0.17987776       0.32832369       0.16580856 </v>
   <v>       0.67987776       0.32832369       0.16580856 </v>
   <v>       0.17987776       0.82832369       0.16580856 </v>
   <v>       0.67987776       0.82832369       0.16580856 </v>
   <v>       0.17987776       0.32832369       0.49914189 </v>
   <v>       0.67987776       0.32832369       0.49914189 </v>
   <v>       0.17987776       0.82832369       0.49914189 </v>
   <v>       0.67987776       0.82832369       0.49914189 </v>
   <v>       0.17987776       0.32832369       0.83247522 </v>
   <v>       0.67987776       0.32832369       0.83247522 </v>
   <v>       0.17987776       0.82832369       0.83247522 </v>
   <v>       0.67987776       0.82832369       0.83247522 </v>
   <v>       0.32012224       0.17167631       0.16580856 </v>
   <v>       0.82012224       0.17167631       0.16580856 </v>
   <v>       0.32012224       0.67167631       0.16580856 </v>
   <v>       0.82012224       0.67167631       0.16580856 </v>
   <v>       0.32012224       0.17167631       0.49914189 </v>
   <v>       0.82012224       0.17167631       0.49914189 </v>
   <v>       0.32012224       0.67167631       0.49914189 </v>
   <v>       0.82012224       0.67167631       0.49914189 </v>
   <v>       0.32012224       0.17167631       0.83247522 </v>
   <v>       0.82012224       0.17167631       0.83247522 </v>
   <v>       0.32012224       0.67167631       0.83247522 </v>
   <v>       0.82012224       0.67167631       0.83247522 </v>
   <v>       0.42987656       0.42167494       0.22308000 </v>
   <v>       0.92987656       0.42167494       0.22308000 </v>
   <v>       0.42987656       0.92167494       0.22308000 </v>
   <v>       0.92987656       0.92167494       0.22308000 </v>
   <v>       0.42987656       0.42167494       0.55641333 </v>
   <v>       0.92987656       0.42167494       0.55641333 </v>
   <v>       0.42987656       0.92167494       0.55641333 </v>
   <v>       0.92987656       0.92167494       0.55641333 </v>
   <v>       0.42987656       0.42167494       0.88974666 </v>
   <v>       0.92987656       0.42167494       0.88974666 </v>
   <v>       0.42987656       0.92167494       0.88974666 </v>
   <v>       0.92987656       0.92167494       0.88974666 </v>
   <v>       0.07012344       0.07832506       0.22308000 </v>
   <v>       0.57012344       0.07832506       0.22308000 </v>
   <v>       0.07012344       0.57832506       0.22308000 </v>
   <v>       0.57012344       0.57832506       0.22308000 </v>
   <v>       0.07012344       0.07832506       0.55641333 </v>
   <v>       0.57012344       0.07832506       0.55641333 </v>
   <v>       0.07012344       0.57832506       0.55641333 </v>
   <v>       0.57012344       0.57832506       0.55641333 </v>
   <v>       0.07012344       0.07832506       0.88974666 </v>
   <v>       0.57012344       0.07832506       0.88974666 </v>
   <v>       0.07012344       0.57832506       0.88974666 </v>
   <v>       0.57012344       0.57832506       0.88974666 </v>
   <v>       0.00049507       0.00000000       0.05528872 </v>
   <v>       0.50000000       0.00000000       0.05479365 </v>
   <v>       0.00000000       0.50000000       0.05479365 </v>
   <v>       0.50000000       0.50000000       0.05479365 </v>
   <v>       0.00000000       0.00000000       0.38812698 </v>
   <v>       0.50000000       0.00000000       0.38812698 </v>
   <v>       0.00000000       0.50000000       0.38812698 </v>
   <v>       0.50000000       0.50000000       0.38812698 </v>
   <v>       0.00000000       0.00000000       0.72146032 </v>
   <v>       0.50000000       0.00000000       0.72146032 </v>
   <v>       0.00000000       0.50000000       0.72146032 </v>
   <v>       0.50000000       0.50000000       0.72146032 </v>
   <v>       0.25000000       0.00000000       0.22145206 </v>
   <v>       0.75000000       0.00000000       0.22145206 </v>
   <v>       0.25000000       0.50000000       0.22145206 </v>
   <v>       0.75000000       0.50000000       0.22145206 </v>
   <v>       0.25000000       0.00000000       0.55478539 </v>
   <v>       0.75000000       0.00000000       0.55478539 </v>
   <v>       0.25000000       0.50000000       0.55478539 </v>
   <v>       0.75000000       0.50000000       0.55478539 </v>
   <v>       0.25000000       0.00000000       0.88811873 </v>
   <v>       0.75000000       0.00000000       0.88811873 </v>
   <v>       0.25000000       0.50000000       0.88811873 </v>
   <v>       0.75000000       0.50000000       0.88811873 </v>
   <v>       0.00000000       0.25000000       0.16743769 </v>
   <v>       0.50000000       0.25000000       0.16743769 </v>
   <v>       0.00000000       0.75000000       0.16743769 </v>
   <v>       0.50000000       0.75000000       0.16743769 </v>
   <v>       0.00000000       0.25000000       0.50077102 </v>
   <v>       0.50000000       0.25000000       0.50077102 </v>
   <v>       0.00000000       0.75000000       0.50077102 </v>
   <v>       0.50000000       0.75000000       0.50077102 </v>
   <v>       0.00000000       0.25000000       0.83410435 </v>
   <v>       0.50000000       0.25000000       0.83410435 </v>
   <v>       0.00000000       0.75000000       0.83410435 </v>
   <v>       0.50000000       0.75000000       0.83410435 </v>
   <v>       0.25000000       0.25000000       0.00076332 </v>
   <v>       0.75000000       0.25000000       0.00076332 </v>
   <v>       0.25000000       0.75000000       0.00076332 </v>
   <v>       0.75000000       0.75000000       0.00076332 </v>
   <v>       0.25000000       0.25000000       0.33409665 </v>
   <v>       0.75000000       0.25000000       0.33409665 </v>
   <v>       0.25000000       0.75000000       0.33409665 </v>
   <v>       0.75000000       0.75000000       0.33409665 </v>
   <v>       0.25000000       0.25000000       0.66742999 </v>
   <v>       0.75000000       0.25000000       0.66742999 </v>
   <v>       0.25000000       0.75000000       0.66742999 </v>
   <v>       0.75000000       0.75000000       0.66742999 </v>
  </varray>
 </structure>
 <calculation>
  <scstep>
   <time name="dav">  924.32  926.86</time>
   <time name="total">  927.84  930.40</time>
   <energy>
    <i name="alphaZ">   4890.97834259 </i>
    <i name="ewald"> -98843.40600547 </i>
    <i name="hartreedc"> -25788.89873413 </i>
    <i name="XCdc">   -889.86475610 </i>
    <i name="pawpsdc"> 106286.73805879 </i>
    <i name="pawaedc">-101298.59693205 </i>
    <i name="eentropy">     -0.04313378 </i>
    <i name="bandstr">  14366.23882199 </i>
    <i name="atom"> 111881.97810035 </i>
    <i name="e_fr_energy">  10605.12376219 </i>
    <i name="e_wo_entrp">  10605.16689597 </i>
    <i name="e_0_energy">  10605.14532908 </i>
   </energy>
  </scstep>
  <scstep>
   <time name="dav">  962.40  964.95</time>
   <time name="total">  962.41  964.95</time>
   <energy>
    <i name="e_fr_energy">    151.06755918 </i>
    <i name="e_wo_entrp">    151.07985445 </i>
    <i name="e_0_energy">    151.07370682 </i>
   </energy>
  </scstep>
  <scstep>
   <time name="dav"> 1010.63 1013.26</time>
   <time name="total"> 1010.64 1013.27</time>
   <energy>
    <i name="e_fr_energy">   -517.93614622 </i>
    <i name="e_wo_entrp">   -517.93003615 </i>
    <i name="e_0_energy">   -517.93309118 </i>
   </energy>
  </scstep>
  <scstep>
   <time name="dav">  984.61  987.12</time>
   <time name="total">  984.62  987.13</time>
   <energy>
    <i name="e_fr_energy">   -535.41609783 </i>
    <i name="e_wo_entrp">   -535.41064727 </i>
    <i name="e_0_energy">   -535.41337255 </i>
   </energy>
  </scstep>
  <scstep>
   <time name="dav">  989.60  992.08</time>
   <time name="total"> 1004.22 1006.74</time>
   <energy>
    <i name="e_fr_energy">   -535.67104466 </i>
    <i name="e_wo_entrp">   -535.66558601 </i>
    <i name="e_0_energy">   -535.66831534 </i>
   </energy>
  </scstep>
  <scstep>
   <time name="dav">  957.26  959.68</time>
   <time name="total">  974.96  977.42</time>
   <energy>
    <i name="e_fr_energy">   -504.98323938 </i>
    <i name="e_wo_entrp">   -504.96776033 </i>
    <i name="e_0_energy">   -504.97549986 </i>
   </energy>
  </scstep>
  <scstep>
   <time name="dav">  958.42  960.82</time>
   <time name="total">  976.02  978.46</time>
   <energy>
    <i name="e_fr_energy">   -505.65753644 </i>
    <i name="e_wo_entrp">   -505.64178432 </i>
    <i name="e_0_energy">   -505.64966038 </i>
   </energy>
  </scstep>
  <scstep>
   <time name="dav">  971.40  973.87</time>
   <time name="total">  989.18  991.70</time>
   <energy>
    <i name="e_fr_energy">   -505.18191690 </i>
    <i name="e_wo_entrp">   -505.16731280 </i>
    <i name="e_0_energy">   -505.17461485 </i>
   </energy>
  </scstep>
  <scstep>
   <time name="dav">  962.25  964.59</time>
   <time name="total">  980.17  982.56</time>
   <energy>
    <i name="e_fr_energy">   -505.12624721 </i>
    <i name="e_wo_entrp">   -505.11103072 </i>
    <i name="e_0_energy">   -505.11863896 </i>
   </energy>
  </scstep>
  <scstep>
   <time name="dav">  965.43  967.94</time>
   <time name="total">  983.34  985.93</time>
   <energy>
    <i name="e_fr_energy">   -505.12837053 </i>
    <i name="e_wo_entrp">   -505.11309625 </i>
    <i name="e_0_energy">   -505.12073339 </i>
   </energy>
  </scstep>
  <scstep>
   <time name="dav">  981.83  984.35</time>
   <time name="total"> 1000.09 1002.66</time>
   <energy>
    <i name="e_fr_energy">   -505.12824706 </i>
    <i name="e_wo_entrp">   -505.11304102 </i>
    <i name="e_0_energy">   -505.12064404 </i>
   </energy>
  </scstep>
  <scstep>
   <time name="dav">  976.03  978.63</time>
   <time name="total">  994.87  997.52</time>
   <energy>
    <i name="e_fr_energy">   -505.12820474 </i>
    <i name="e_wo_entrp">   -505.11297839 </i>
    <i name="e_0_energy">   -505.12059156 </i>
   </energy>
  </scstep>
  <scstep>
   <time name="dav"> 1029.17 1031.67</time>
   <time name="total"> 1050.39 1052.95</time>
   <energy>
    <i name="e_fr_energy">   -505.12820475 </i>
    <i name="e_wo_entrp">   -505.11298134 </i>
    <i name="e_0_energy">   -505.12059305 </i>
   </energy>
  </scstep>
  <scstep>
   <time name="dav">  977.31  979.60</time>
   <time name="total">  996.09  998.43</time>
   <energy>
    <i name="e_fr_energy">   -505.12820362 </i>
    <i name="e_wo_entrp">   -505.11298129 </i>
    <i name="e_0_energy">   -505.12059246 </i>
   </energy>
  </scstep>
  <scstep>
   <time name="dav">  995.92  998.28</time>
   <time name="total"> 1014.38 1016.78</time>
   <energy>
    <i name="e_fr_energy">   -505.12820211 </i>
    <i name="e_wo_entrp">   -505.11298001 </i>
    <i name="e_0_energy">   -505.12059106 </i>
   </energy>
  </scstep>
  <scstep>
   <time name="dav">  900.61  902.75</time>
   <time name="total">  918.37  920.57</time>
   <energy>
    <i name="e_fr_energy">   -505.12820212 </i>
    <i name="e_wo_entrp">   -505.11298021 </i>
    <i name="e_0_energy">   -505.12059116 </i>
   </energy>
  </scstep>
  <scstep>
   <time name="dav">  601.65  603.21</time>
   <time name="total">  619.57  621.18</time>
   <energy>
    <i name="e_fr_energy">   -505.12820214 </i>
    <i name="e_wo_entrp">   -505.11298016 </i>
    <i name="e_0_energy">   -505.12059115 </i>
   </energy>
  </scstep>
  <scstep>
   <time name="dav">  591.95  593.48</time>
   <time name="total">  609.20  610.77</time>
   <energy>
    <i name="e_fr_energy">   -505.12820212 </i>
    <i name="e_wo_entrp">   -505.11298011 </i>
    <i name="e_0_energy">   -505.12059112 </i>
   </energy>
  </scstep>
  <scstep>
   <time name="dav">  594.31  595.91</time>
   <time name="total">  597.77  599.38</time>
   <energy>
    <i name="alphaZ">   4890.97834259 </i>
    <i name="ewald"> -98843.40600547 </i>
    <i name="hartreedc"> -24657.71803659 </i>
    <i name="XCdc">   -922.45199722 </i>
    <i name="pawpsdc"> 122251.94884834 </i>
    <i name="pawaedc">-117444.20308560 </i>
    <i name="eentropy">     -0.01522202 </i>
    <i name="bandstr">   2337.76085351 </i>
    <i name="atom"> 111881.97810035 </i>
    <i name="e_fr_energy">   -505.12820212 </i>
    <i name="e_wo_entrp">   -505.11298010 </i>
    <i name="e_0_energy">   -505.12059111 </i>
   </energy>
  </scstep>
  <structure>
   <crystal>
    <varray name="basis" >
     <v>      14.01039598       0.00139138       0.00000000 </v>
     <v>      -0.00150196      13.76691092       0.00000000 </v>
     <v>       0.00000000       0.00000000      14.55019386 </v>
    </varray>
    <i name="volume">   2806.43958022 </i>
    <varray name="rec_basis" >
     <v>       0.07137557       0.00000779       0.00000000 </v>
     <v>      -0.00000721       0.07263794       0.00000000 </v>
     <v>       0.00000000       0.00000000       0.06872761 </v>
    </varray>
   </crystal>
   <varray name="positions" >
    <v>       0.42987898       0.17167077       0.33247735 </v>
    <v>       0.92987898       0.17167077       0.33247735 </v>
    <v>       0.42987898       0.67167077       0.33247735 </v>
    <v>       0.92987898       0.67167077       0.33247735 </v>
    <v>       0.42987898       0.17167077       0.66581068 </v>
    <v>       0.92987898       0.17167077       0.66581068 </v>
    <v>       0.42987898       0.67167077       0.66581068 </v>
    <v>       0.92987898       0.67167077       0.66581068 </v>
    <v>       0.42987898       0.17167077       0.99914401 </v>
    <v>       0.92987898       0.17167077       0.99914401 </v>
    <v>       0.42987898       0.67167077       0.99914401 </v>
    <v>       0.92987898       0.67167077       0.99914401 </v>
    <v>       0.07012102       0.32832923       0.33247735 </v>
    <v>       0.57012102       0.32832923       0.33247735 </v>
    <v>       0.07012102       0.82832923       0.33247735 </v>
    <v>       0.57012102       0.82832923       0.33247735 </v>
    <v>       0.07012102       0.32832923       0.66581068 </v>
    <v>       0.57012102       0.32832923       0.66581068 </v>
    <v>       0.07012102       0.82832923       0.66581068 </v>
    <v>       0.57012102       0.82832923       0.66581068 </v>
    <v>       0.07012102       0.32832923       0.99914401 </v>
    <v>       0.57012102       0.32832923       0.99914401 </v>
    <v>       0.07012102       0.82832923       0.99914401 </v>
    <v>       0.57012102       0.82832923       0.99914401 </v>
    <v>       0.32012053       0.42167367       0.05641075 </v>
    <v>       0.82012053       0.42167367       0.05641075 </v>
    <v>       0.32012053       0.92167367       0.05641075 </v>
    <v>       0.82012053       0.92167367       0.05641075 </v>
    <v>       0.32012053       0.42167367       0.38974408 </v>
    <v>       0.82012053       0.42167367       0.38974408 </v>
    <v>       0.32012053       0.92167367       0.38974408 </v>
    <v>       0.82012053       0.92167367       0.38974408 </v>
    <v>       0.32012053       0.42167367       0.72307741 </v>
    <v>       0.82012053       0.42167367       0.72307741 </v>
    <v>       0.32012053       0.92167367       0.72307741 </v>
    <v>       0.82012053       0.92167367       0.72307741 </v>
    <v>       0.17987947       0.07832633       0.05641075 </v>
    <v>       0.67987947       0.07832633       0.05641075 </v>
    <v>       0.17987947       0.57832633       0.05641075 </v>
    <v>       0.67987947       0.57832633       0.05641075 </v>
    <v>       0.17987947       0.07832633       0.38974408 </v>
    <v>       0.67987947       0.07832633       0.38974408 </v>
    <v>       0.17987947       0.57832633       0.38974408 </v>
    <v>       0.67987947       0.57832633       0.38974408 </v>
    <v>       0.17987947       0.07832633       0.72307741 </v>
    <v>       0.67987947       0.07832633       0.72307741 </v>
    <v>       0.17987947       0.57832633       0.72307741 </v>
    <v>       0.67987947       0.57832633       0.72307741 </v>
    <v>       0.17987776       0.32832369       0.16580856 </v>
    <v>       0.67987776       0.32832369       0.16580856 </v>
    <v>       0.17987776       0.82832369       0.16580856 </v>
    <v>       0.67987776       0.82832369       0.16580856 </v>
    <v>       0.17987776       0.32832369       0.49914189 </v>
    <v>       0.67987776       0.32832369       0.49914189 </v>
    <v>       0.17987776       0.82832369       0.49914189 </v>
    <v>       0.67987776       0.82832369       0.49914189 </v>
    <v>       0.17987776       0.32832369       0.83247522 </v>
    <v>       0.67987776       0.32832369       0.83247522 </v>
    <v>       0.17987776       0.82832369       0.83247522 </v>
    <v>       0.67987776       0.82832369       0.83247522 </v>
    <v>       0.32012224       0.17167631       0.16580856 </v>
    <v>       0.82012224       0.17167631       0.16580856 </v>
    <v>       0.32012224       0.67167631       0.16580856 </v>
    <v>       0.82012224       0.67167631       0.16580856 </v>
    <v>       0.32012224       0.17167631       0.49914189 </v>
    <v>       0.82012224       0.17167631       0.49914189 </v>
    <v>       0.32012224       0.67167631       0.49914189 </v>
    <v>       0.82012224       0.67167631       0.49914189 </v>
    <v>       0.32012224       0.17167631       0.83247522 </v>
    <v>       0.82012224       0.17167631       0.83247522 </v>
    <v>       0.32012224       0.67167631       0.83247522 </v>
    <v>       0.82012224       0.67167631       0.83247522 </v>
    <v>       0.42987656       0.42167494       0.22308000 </v>
    <v>       0.92987656       0.42167494       0.22308000 </v>
    <v>       0.42987656       0.92167494       0.22308000 </v>
    <v>       0.92987656       0.92167494       0.22308000 </v>
    <v>       0.42987656       0.42167494       0.55641333 </v>
    <v>       0.92987656       0.42167494       0.55641333 </v>
    <v>       0.42987656       0.92167494       0.55641333 </v>
    <v>       0.92987656       0.92167494       0.55641333 </v>
    <v>       0.42987656       0.42167494       0.88974666 </v>
    <v>       0.92987656       0.42167494       0.88974666 </v>
    <v>       0.42987656       0.92167494       0.88974666 </v>
    <v>       0.92987656       0.92167494       0.88974666 </v>
    <v>       0.07012344       0.07832506       0.22308000 </v>
    <v>       0.57012344       0.07832506       0.22308000 </v>
    <v>       0.07012344       0.57832506       0.22308000 </v>
    <v>       0.57012344       0.57832506       0.22308000 </v>
    <v>       0.07012344       0.07832506       0.55641333 </v>
    <v>       0.57012344       0.07832506       0.55641333 </v>
    <v>       0.07012344       0.57832506       0.55641333 </v>
    <v>       0.57012344       0.57832506       0.55641333 </v>
    <v>       0.07012344       0.07832506       0.88974666 </v>
    <v>       0.57012344       0.07832506       0.88974666 </v>
    <v>       0.07012344       0.57832506       0.88974666 </v>
    <v>       0.57012344       0.57832506       0.88974666 </v>
    <v>       0.00049507       0.00000000       0.05528872 </v>
    <v>       0.50000000       0.00000000       0.05479365 </v>
    <v>       0.00000000       0.50000000       0.05479365 </v>
    <v>       0.50000000       0.50000000       0.05479365 </v>
    <v>       0.00000000       0.00000000       0.38812698 </v>
    <v>       0.50000000       0.00000000       0.38812698 </v>
    <v>       0.00000000       0.50000000       0.38812698 </v>
    <v>       0.50000000       0.50000000       0.38812698 </v>
    <v>       0.00000000       0.00000000       0.72146032 </v>
    <v>       0.50000000       0.00000000       0.72146032 </v>
    <v>       0.00000000       0.50000000       0.72146032 </v>
    <v>       0.50000000       0.50000000       0.72146032 </v>
    <v>       0.25000000       0.00000000       0.22145206 </v>
    <v>       0.75000000       0.00000000       0.22145206 </v>
    <v>       0.25000000       0.50000000       0.22145206 </v>
    <v>       0.75000000       0.50000000       0.22145206 </v>
    <v>       0.25000000       0.00000000       0.55478539 </v>
    <v>       0.75000000       0.00000000       0.55478539 </v>
    <v>       0.25000000       0.50000000       0.55478539 </v>
    <v>       0.75000000       0.50000000       0.55478539 </v>
    <v>       0.25000000       0.00000000       0.88811873 </v>
    <v>       0.75000000       0.00000000       0.88811873 </v>
    <v>       0.25000000       0.50000000       0.88811873 </v>
    <v>       0.75000000       0.50000000       0.88811873 </v>
    <v>       0.00000000       0.25000000       0.16743769 </v>
    <v>       0.50000000       0.25000000       0.16743769 </v>
    <v>       0.00000000       0.75000000       0.16743769 </v>
    <v>       0.50000000       0.75000000       0.16743769 </v>
    <v>       0.00000000       0.25000000       0.50077102 </v>
    <v>       0.50000000       0.25000000       0.50077102 </v>
    <v>       0.00000000       0.75000000       0.50077102 </v>
    <v>       0.50000000       0.75000000       0.50077102 </v>
    <v>       0.00000000       0.25000000       0.83410435 </v>
    <v>       0.50000000       0.25000000       0.83410435 </v>
    <v>       0.00000000       0.75000000       0.83410435 </v>
    <v>       0.50000000       0.75000000       0.83410435 </v>
    <v>       0.25000000       0.25000000       0.00076332 </v>
    <v>       0.75000000       0.25000000       0.00076332 </v>
    <v>       0.25000000       0.75000000       0.00076332 </v>
    <v>       0.75000000       0.75000000       0.00076332 </v>
    <v>       0.25000000       0.25000000       0.33409665 </v>
    <v>       0.75000000       0.25000000       0.33409665 </v>
    <v>       0.25000000       0.75000000       0.33409665 </v>
    <v>       0.75000000       0.75000000       0.33409665 </v>
    <v>       0.25000000       0.25000000       0.66742999 </v>
    <v>       0.75000000       0.25000000       0.66742999 </v>
    <v>       0.25000000       0.75000000       0.66742999 </v>
    <v>       0.75000000       0.75000000       0.66742999 </v>
   </varray>
  </structure>
  <varray name="forces" >
   <v>      -0.00003214       0.00006691      -0.00006474 </v>
   <v>       0.00008853       0.00017494       0.00010685 </v>
   <v>      -0.00010581       0.00009462      -0.00005553 </v>
   <v>       0.00013538       0.00009826      -0.00036032 </v>
   <v>      -0.00003579       0.00015487      -0.00008394 </v>
   <v>       0.00009853       0.00008346      -0.00010005 </v>
   <v>      -0.00007218       0.00005209      -0.00005099 </v>
   <v>      -0.00019212      -0.00010345      -0.00034122 </v>
   <v>      -0.00013795       0.00003284       0.00008454 </v>
   <v>       0.00409806      -0.01025238       0.00233713 </v>
   <v>      -0.00029108       0.00008209       0.00002060 </v>
   <v>       0.00014157       0.00029534       0.00024623 </v>
   <v>       0.00004497      -0.00005987       0.00002743 </v>
   <v>      -0.00000648      -0.00005425      -0.00002007 </v>
   <v>       0.00014850      -0.00029293       0.00017383 </v>
   <v>      -0.00003477      -0.00000104      -0.00001947 </v>
   <v>       0.00004921       0.00000386      -0.00028345 </v>
   <v>      -0.00006322      -0.00007109      -0.00005242 </v>
   <v>      -0.00006310      -0.00006243      -0.00014533 </v>
   <v>      -0.00012104      -0.00008005      -0.00005848 </v>
   <v>      -0.00002547      -0.00006998       0.00015609 </v>
   <v>      -0.00013126      -0.00006425      -0.00001742 </v>
   <v>      -0.00245973       0.00219860      -0.00117167 </v>
   <v>      -0.00008718      -0.00013948      -0.00006174 </v>
   <v>       0.00000249       0.00000353       0.00005453 </v>
   <v>       0.00009547       0.00005935       0.00012977 </v>
   <v>       0.00013308      -0.00000854       0.00021662 </v>
   <v>       0.00822715       0.00568592      -0.00086742 </v>
   <v>       0.00000143      -0.00002385       0.00002188 </v>
   <v>       0.00005061       0.00004834       0.00005267 </v>
   <v>      -0.00033441       0.00027495      -0.00053012 </v>
   <v>       0.00029001      -0.00004749      -0.00023807 </v>
   <v>      -0.00001237       0.00002448       0.00005576 </v>
   <v>      -0.00005039       0.00001351       0.00005356 </v>
   <v>      -0.00029154       0.00014574       0.00036865 </v>
   <v>      -0.00029958       0.00002810      -0.00071222 </v>
   <v>       0.00754659       0.00599163      -0.00220255 </v>
   <v>       0.00013428       0.00012399       0.00008601 </v>
   <v>      -0.00006736       0.00004861       0.00003323 </v>
   <v>       0.00000014      -0.00012491       0.00010767 </v>
   <v>      -0.00030128      -0.00006205      -0.00074865 </v>
   <v>      -0.00031696       0.00010103       0.00025978 </v>
   <v>      -0.00009272       0.00003796      -0.00001201 </v>
   <v>      -0.00004214       0.00000604       0.00004915 </v>
   <v>       0.00021710      -0.00006090      -0.00025357 </v>
   <v>      -0.00031230       0.00021997      -0.00060422 </v>
   <v>       0.00002901      -0.00001422       0.00002920 </v>
   <v>      -0.00007047      -0.00004999       0.00003075 </v>
   <v>      -0.00015013      -0.00012037      -0.00010067 </v>
   <v>      -0.00004096       0.00005410       0.00007018 </v>
   <v>       0.00057832      -0.00055650       0.00029108 </v>
   <v>      -0.00018720      -0.00019953       0.00026221 </v>
   <v>      -0.00002082       0.00004061      -0.00012450 </v>
   <v>      -0.00006395       0.00003297      -0.00006802 </v>
   <v>       0.00004022      -0.00003691      -0.00008085 </v>
   <v>      -0.00004284      -0.00000478      -0.00009169 </v>
   <v>       0.00007579       0.00003051       0.00006419 </v>
   <v>      -0.00002852       0.00011325      -0.00005866 </v>
   <v>      -0.00017159       0.00016796       0.00022825 </v>
   <v>      -0.00014182      -0.00036668      -0.00001681 </v>
   <v>      -0.00009442      -0.00043914      -0.00007256 </v>
   <v>       0.00017113      -0.00002873      -0.00037914 </v>
   <v>      -0.00009800       0.00005347      -0.00007479 </v>
   <v>       0.00020406      -0.00007899       0.00014465 </v>
   <v>      -0.00000796       0.00000781      -0.00003478 </v>
   <v>      -0.00002114      -0.00003966      -0.00002888 </v>
   <v>      -0.00007358       0.00005544      -0.00002938 </v>
   <v>      -0.00004714       0.00000634      -0.00011593 </v>
   <v>      -0.00008560      -0.00006822      -0.00009506 </v>
   <v>       0.00028071      -0.00020494       0.00040772 </v>
   <v>      -0.00012234       0.00014582       0.00007819 </v>
   <v>      -0.00021844       0.00007965       0.00006381 </v>
   <v>      -0.00000556       0.00001297       0.00003975 </v>
   <v>       0.00016227      -0.00059446      -0.00019487 </v>
   <v>      -0.00084728       0.00022390       0.00011381 </v>
   <v>      -0.00156431      -0.00027704       0.00189041 </v>
   <v>       0.00001419      -0.00000663      -0.00000408 </v>
   <v>       0.00002620       0.00004038      -0.00010577 </v>
   <v>      -0.00014613       0.00001340      -0.00019185 </v>
   <v>      -0.00005585       0.00007396      -0.00029456 </v>
   <v>      -0.00000830       0.00009169       0.00000870 </v>
   <v>       0.00001954       0.00008317       0.00012849 </v>
   <v>      -0.00026657       0.00001981      -0.00004697 </v>
   <v>       0.00033096       0.00410513       0.00753513 </v>
   <v>       0.00085818       0.00187060       0.00729287 </v>
   <v>      -0.00035391       0.00001085       0.00002813 </v>
   <v>      -0.00016575       0.00028044      -0.00008322 </v>
   <v>       0.00000471       0.00002235       0.00001804 </v>
   <v>      -0.00010359      -0.00003889      -0.00027964 </v>
   <v>      -0.00015201      -0.00002967      -0.00018970 </v>
   <v>       0.00004316      -0.00009674      -0.00008754 </v>
   <v>      -0.00001718      -0.00003044       0.00001877 </v>
   <v>      -0.00246393      -0.00126096       0.00372213 </v>
   <v>      -0.00080801       0.00014695       0.00024260 </v>
   <v>      -0.00003418      -0.00008990       0.00022967 </v>
   <v>      -0.00006502       0.00001453       0.00007804 </v>
   <v>      -0.02776950      -0.00257699      -0.03083109 </v>
   <v>       0.00047142       0.00013662      -0.00010805 </v>
   <v>       0.00019930       0.00020910      -0.00058303 </v>
   <v>       0.00008870       0.00001787      -0.00013884 </v>
   <v>       0.00026420       0.00001061       0.00232716 </v>
   <v>       0.00111054       0.00049805       0.00031223 </v>
   <v>      -0.00009978      -0.00002038       0.00021861 </v>
   <v>      -0.00002814       0.00006884      -0.00007543 </v>
   <v>       0.00025933       0.00009798       0.00229681 </v>
   <v>       0.00110207       0.00033755       0.00031112 </v>
   <v>      -0.00010090       0.00012397       0.00021974 </v>
   <v>      -0.00002816       0.00003388      -0.00007528 </v>
   <v>       0.00500538      -0.00196995       0.00282479 </v>
   <v>       0.00100462      -0.00082623      -0.00140239 </v>
   <v>       0.00010065      -0.00007473       0.00005675 </v>
   <v>      -0.00005399      -0.00011429      -0.00004944 </v>
   <v>       0.00025190      -0.00016665       0.00003847 </v>
   <v>       0.00020376      -0.00023997       0.00008623 </v>
   <v>       0.00007337      -0.00003789       0.00008779 </v>
   <v>       0.00011183      -0.00006046       0.00005030 </v>
   <v>       0.00078956      -0.00059584      -0.00121338 </v>
   <v>       0.00512981      -0.00184272       0.00259160 </v>
   <v>      -0.00003236      -0.00027663      -0.00007004 </v>
   <v>       0.00007960      -0.00015864       0.00007762 </v>
   <v>      -0.00181320       0.00340188       0.00068711 </v>
   <v>       0.00010133       0.00008709      -0.00003942 </v>
   <v>      -0.00088265      -0.00262031       0.00158552 </v>
   <v>       0.00011113       0.00011047      -0.00003055 </v>
   <v>       0.00002787       0.00004200       0.00041989 </v>
   <v>       0.00001849       0.00013635       0.00002853 </v>
   <v>       0.00002193       0.00012067       0.00041350 </v>
   <v>       0.00011560       0.00006266       0.00012115 </v>
   <v>      -0.00027362      -0.00119971       0.00119426 </v>
   <v>       0.00027220      -0.00002646      -0.00008527 </v>
   <v>       0.00075440       0.00144802       0.00218343 </v>
   <v>       0.00033759       0.00010298      -0.00002652 </v>
   <v>       0.00062011      -0.00028842       0.00031191 </v>
   <v>       0.00033030      -0.00055833       0.00003988 </v>
   <v>       0.00116543      -0.00065489      -0.00021092 </v>
   <v>       0.00087232       0.00045850      -0.00047745 </v>
   <v>       0.00013422       0.00008588       0.00020584 </v>
   <v>      -0.00003288      -0.00024302       0.00004345 </v>
   <v>       0.00003505      -0.00050354       0.00030051 </v>
   <v>      -0.00013153      -0.00006579       0.00013906 </v>
   <v>       0.00001787       0.00001726       0.00011736 </v>
   <v>       0.00012251      -0.00003950       0.00021658 </v>
   <v>       0.00011010      -0.00004370       0.00002827 </v>
   <v>       0.00021553      -0.00013991       0.00012846 </v>
  </varray>
  <varray name="stress" >
   <v>      -0.16892063       0.00517705      -0.00186593 </v>
   <v>       0.00517722      -0.16987187       0.00064253 </v>
   <v>      -0.00186582       0.00064254      -0.16539918 </v>
  </varray>
  <energy>
   <i name="e_fr_energy">   -505.12820212 </i>
   <i name="e_wo_entrp">   -505.12059111 </i>
   <i name="e_0_energy">     -0.01522202 </i>
  </energy>
  <time name="totalsc">19576.2019626.19</time>
  <eigenvalues>
   <array>
    <dimension dim="1">band</dimension>
    <dimension dim="2">kpoint</dimension>
    <dimension dim="3">spin</dimension>
    <field>eigene</field>
    <field>occ</field>
    <set>
     <set comment="spin 1">
      <set comment="kpoint 1">
       <r>   -7.4639    1.0000 </r>
       <r>   -7.2296    1.0000 </r>
       <r>   -7.2294    1.0000 </r>
       <r>   -7.2158    1.0000 </r>
       <r>   -7.2155    1.0000 </r>
       <r>   -7.1643    1.0000 </r>
       <r>   -7.1642    1.0000 </r>
       <r>   -7.0697    1.0000 </r>
       <r>   -7.0696    1.0000 </r>
       <r>   -7.0695    1.0000 </r>
       <r>   -7.0692    1.0000 </r>
       <r>   -7.0092    1.0000 </r>
       <r>   -7.0091    1.0000 </r>
       <r>   -7.0090    1.0000 </r>
       <r>   -7.0088    1.0000 </r>
       <r>   -6.9939    1.0000 </r>
       <r>   -6.9939    1.0000 </r>
       <r>   -6.9938    1.0000 </r>
       <r>   -6.9935    1.0000 </r>
       <r>   -6.9476    1.0000 </r>
       <r>   -6.9351    1.0000 </r>
       <r>   -6.9351    1.0000 </r>
       <r>   -6.9193    1.0000 </r>
       <r>   -6.9192    1.0000 </r>
       <r>   -6.9192    1.0000 </r>
       <r>   -6.9191    1.0000 </r>
       <r>   -6.9190    1.0000 </r>
       <r>   -6.9190    1.0000 </r>
       <r>   -6.9189    1.0000 </r>
       <r>   -6.9184    1.0000 </r>
       <r>   -6.8367    1.0000 </r>
       <r>   -6.8367    1.0000 </r>
       <r>   -6.8366    1.0000 </r>
       <r>   -6.8364    1.0000 </r>
       <r>   -6.8238    1.0000 </r>
       <r>   -6.8180    1.0000 </r>
       <r>   -6.8179    1.0000 </r>
       <r>   -6.7727    1.0000 </r>
       <r>   -6.7724    1.0000 </r>
       <r>   -6.7670    1.0000 </r>
       <r>   -6.7670    1.0000 </r>
       <r>   -6.7668    1.0000 </r>
       <r>   -6.7663    1.0000 </r>
       <r>   -6.7547    1.0000 </r>
       <r>   -6.7545    1.0000 </r>
       <r>   -6.7400    1.0000 </r>
       <r>   -6.7397    1.0000 </r>
       <r>   -6.6843    1.0000 </r>
       <r>   -0.3461    1.0000 </r>
       <r>    0.0940    1.0000 </r>
       <r>    0.0941    1.0000 </r>
       <r>    0.0942    1.0000 </r>
       <r>    0.0943    1.0000 </r>
       <r>    0.0943    1.0000 </r>
       <r>    0.0944    1.0000 </r>
       <r>    0.0946    1.0000 </r>
       <r>    0.0947    1.0000 </r>
       <r>    0.1075    1.0000 </r>
       <r>    0.1077    1.0000 </r>
       <r>    0.1079    1.0000 </r>
       <r>    0.1080    1.0000 </r>
       <r>    0.1521    1.0000 </r>
       <r>    0.1523    1.0000 </r>
       <r>    0.1523    1.0000 </r>
       <r>    0.1525    1.0000 </r>
       <r>    0.1581    1.0000 </r>
       <r>    0.1582    1.0000 </r>
       <r>    0.1596    1.0000 </r>
       <r>    0.1596    1.0000 </r>
       <r>    0.2008    1.0000 </r>
       <r>    0.2009    1.0000 </r>
       <r>    0.2010    1.0000 </r>
       <r>    0.2012    1.0000 </r>
       <r>    0.2366    1.0000 </r>
       <r>    0.2369    1.0000 </r>
       <r>    0.2567    1.0000 </r>
       <r>    0.2570    1.0000 </r>
       <r>    0.2821    1.0000 </r>
       <r>    0.3007    1.0000 </r>
       <r>    0.3009    1.0000 </r>
       <r>    0.3229    1.0000 </r>
       <r>    0.4471    1.0000 </r>
       <r>    0.4473    1.0000 </r>
       <r>    0.4509    1.0000 </r>
       <r>    0.4511    1.0000 </r>
       <r>    0.4572    1.0000 </r>
       <r>    0.4574    1.0000 </r>
       <r>    0.4656    1.0000 </r>
       <r>    0.4657    1.0000 </r>
       <r>    0.4658    1.0000 </r>
       <r>    0.4660    1.0000 </r>
       <r>    0.4699    1.0000 </r>
       <r>    0.4702    1.0000 </r>
       <r>    0.4702    1.0000 </r>
       <r>    0.4705    1.0000 </r>
       <r>    0.5111    1.0000 </r>
       <r>    0.5113    1.0000 </r>
       <r>    0.5261    1.0000 </r>
       <r>    0.5262    1.0000 </r>
       <r>    0.5264    1.0000 </r>
       <r>    0.5266    1.0000 </r>
       <r>    0.5972    1.0000 </r>
       <r>    0.6017    1.0000 </r>
       <r>    0.6548    1.0000 </r>
       <r>    0.6549    1.0000 </r>
       <r>    0.6553    1.0000 </r>
       <r>    0.6555    1.0000 </r>
       <r>    0.6617    1.0000 </r>
       <r>    0.6617    1.0000 </r>
       <r>    0.6878    1.0000 </r>
       <r>    0.6879    1.0000 </r>
       <r>    0.7017    1.0000 </r>
       <r>    0.7019    1.0000 </r>
       <r>    0.7020    1.0000 </r>
       <r>    0.7025    1.0000 </r>
       <r>    0.7206    1.0000 </r>
       <r>    0.7208    1.0000 </r>
       <r>    0.7408    1.0000 </r>
       <r>    0.7412    1.0000 </r>
       <r>    0.7486    1.0000 </r>
       <r>    0.8021    1.0000 </r>
       <r>    0.8141    1.0000 </r>
       <r>    0.8144    1.0000 </r>
       <r>    0.8145    1.0000 </r>
       <r>    0.8147    1.0000 </r>
       <r>    0.8302    1.0000 </r>
       <r>    0.8303    1.0000 </r>
       <r>    0.8305    1.0000 </r>
       <r>    0.8306    1.0000 </r>
       <r>    0.8516    1.0000 </r>
       <r>    0.8520    1.0000 </r>
       <r>    0.8520    1.0000 </r>
       <r>    0.8520    1.0000 </r>
       <r>    0.8520    1.0000 </r>
       <r>    0.8521    1.0000 </r>
       <r>    0.8522    1.0000 </r>
       <r>    0.8528    1.0000 </r>
       <r>    0.8950    1.0000 </r>
       <r>    0.8977    1.0000 </r>
       <r>    0.8978    1.0000 </r>
       <r>    0.8993    1.0000 </r>
       <r>    0.8994    1.0000 </r>
       <r>    0.8995    1.0000 </r>
       <r>    0.8997    1.0000 </r>
       <r>    0.9204    1.0000 </r>
       <r>    0.9459    1.0000 </r>
       <r>    0.9463    1.0000 </r>
       <r>    1.0706    1.0000 </r>
       <r>    1.0708    1.0000 </r>
       <r>    1.0709    1.0000 </r>
       <r>    1.0712    1.0000 </r>
       <r>    1.0843    1.0000 </r>
       <r>    1.0847    1.0000 </r>
       <r>    1.0847    1.0000 </r>
       <r>    1.0850    1.0000 </r>
       <r>    1.0851    1.0000 </r>
       <r>    1.0853    1.0000 </r>
       <r>    1.1008    1.0000 </r>
       <r>    1.1013    1.0000 </r>
       <r>    1.1457    1.0000 </r>
       <r>    1.1459    1.0000 </r>
       <r>    1.1460    1.0000 </r>
       <r>    1.1464    1.0000 </r>
       <r>    1.1616    1.0000 </r>
       <r>    1.1618    1.0000 </r>
       <r>    1.1619    1.0000 </r>
       <r>    1.1622    1.0000 </r>
       <r>    1.1757    1.0000 </r>
       <r>    1.1760    1.0000 </r>
       <r>    1.1998    1.0000 </r>
       <r>    1.2239    1.0000 </r>
       <r>    1.2243    1.0000 </r>
       <r>    1.2296    1.0000 </r>
       <r>    1.2297    1.0000 </r>
       <r>    1.2298    1.0000 </r>
       <r>    1.2299    1.0000 </r>
       <r>    1.2299    1.0000 </r>
       <r>    1.2300    1.0000 </r>
       <r>    1.2301    1.0000 </r>
       <r>    1.2307    1.0000 </r>
       <r>    1.2370    1.0000 </r>
       <r>    1.2374    1.0000 </r>
       <r>    1.3413    1.0000 </r>
       <r>    1.3415    1.0000 </r>
       <r>    1.3415    1.0000 </r>
       <r>    1.3418    1.0000 </r>
       <r>    1.3652    1.0000 </r>
       <r>    1.3664    1.0000 </r>
       <r>    1.3665    1.0000 </r>
       <r>    1.3671    1.0000 </r>
       <r>    1.3672    1.0000 </r>
       <r>    1.3734    1.0000 </r>
       <r>    1.3735    1.0000 </r>
       <r>    1.3735    1.0000 </r>
       <r>    1.3736    1.0000 </r>
[...]
       <r>    -1.7772     0.0000    96.0000 </r>
       <r>    -1.7055     0.0000    96.0000 </r>
       <r>    -1.6338     0.0000    96.0000 </r>
       <r>    -1.5622     0.0000    96.0000 </r>
       <r>    -1.4905     0.0000    96.0000 </r>
       <r>    -1.4189     0.0000    96.0000 </r>
       <r>    -1.3472     0.0000    96.0000 </r>
       <r>    -1.2756     0.0000    96.0000 </r>
       <r>    -1.2039     0.0000    96.0000 </r>
       <r>    -1.1323     0.0000    96.0000 </r>
       <r>    -1.0606     0.0000    96.0000 </r>
       <r>    -0.9890     0.0000    96.0000 </r>
       <r>    -0.9173     0.0000    96.0000 </r>
       <r>    -0.8457     0.0000    96.0000 </r>
       <r>    -0.7740     0.0000    96.0000 </r>
       <r>    -0.7023     0.0000    96.0000 </r>
       <r>    -0.6307     0.0000    96.0000 </r>
       <r>    -0.5590     0.0000    96.0000 </r>
       <r>    -0.4874     0.0001    96.0000 </r>
       <r>    -0.4157     0.0850    96.0061 </r>
       <r>    -0.3441     1.7376    96.1306 </r>
       <r>    -0.2724     1.8836    96.2656 </r>
       <r>    -0.2008     8.1664    96.8507 </r>
       <r>    -0.1291    15.3918    97.9536 </r>
       <r>    -0.0575    23.9937    99.6728 </r>
       <r>     0.0142    50.9100   103.3207 </r>
       <r>     0.0858   101.5311   110.5958 </r>
       <r>     0.1575   188.3328   124.0905 </r>
       <r>     0.2292   205.0220   138.7811 </r>
       <r>     0.3008   274.2892   158.4350 </r>
       <r>     0.3725   194.3262   172.3591 </r>
       <r>     0.4441   125.2698   181.3352 </r>
       <r>     0.5158   140.7713   191.4220 </r>
       <r>     0.5874   124.2079   200.3219 </r>
       <r>     0.6591   165.3168   212.1675 </r>
       <r>     0.7307   244.9788   229.7211 </r>
       <r>     0.8024   229.2294   246.1463 </r>
       <r>     0.8740   290.7805   266.9818 </r>
       <r>     0.9457   285.9858   287.4737 </r>
       <r>     1.0173   147.3639   298.0329 </r>
       <r>     1.0890   183.2887   311.1662 </r>
       <r>     1.1606   226.5466   327.3991 </r>
       <r>     1.2323   229.1042   343.8153 </r>
       <r>     1.3040   297.8670   365.1585 </r>
       <r>     1.3756   306.0089   387.0852 </r>
       <r>     1.4473   391.2534   415.1200 </r>
       <r>     1.5189   355.6052   440.6004 </r>
       <r>     1.5906   372.9649   467.3247 </r>
       <r>     1.6622   365.5194   493.5155 </r>
       <r>     1.7339   391.3267   521.5555 </r>
       <r>     1.8055   372.6173   548.2549 </r>
       <r>     1.8772   357.9437   573.9029 </r>
       <r>     1.9488   388.6773   601.7531 </r>
       <r>     2.0205   414.6052   631.4611 </r>
       <r>     2.0921   378.6870   658.5954 </r>
       <r>     2.1638   360.9606   684.4596 </r>
       <r>     2.2355   374.8705   711.3204 </r>
       <r>     2.3071   397.3545   739.7924 </r>
       <r>     2.3788   338.5845   764.0532 </r>
       <r>     2.4504   296.4651   785.2960 </r>
       <r>     2.5221   339.0157   809.5877 </r>
       <r>     2.5937   354.6494   834.9997 </r>
       <r>     2.6654   408.5973   864.2772 </r>
       <r>     2.7370   374.6438   891.1218 </r>
       <r>     2.8087   379.2538   918.2967 </r>
       <r>     2.8803   431.5826   949.2212 </r>
       <r>     2.9520   498.6202   984.9492 </r>
       <r>     3.0236   497.3318  1020.5849 </r>
       <r>     3.0953   370.1854  1047.1100 </r>
       <r>     3.1670   234.1866  1063.8904 </r>
       <r>     3.2386   205.3792  1078.6066 </r>
       <r>     3.3103   170.8431  1090.8481 </r>
       <r>     3.3819   138.4855  1100.7711 </r>
       <r>     3.4536   119.2427  1109.3153 </r>
       <r>     3.5252   157.2754  1120.5846 </r>
       <r>     3.5969   163.4517  1132.2966 </r>
       <r>     3.6685   101.2205  1139.5494 </r>
       <r>     3.7402    96.7963  1146.4852 </r>
       <r>     3.8118    65.2157  1151.1581 </r>
       <r>     3.8835    72.1993  1156.3315 </r>
       <r>     3.9551    73.4460  1161.5942 </r>
       <r>     4.0268    65.1829  1166.2648 </r>
       <r>     4.0985    92.3661  1172.8831 </r>
       <r>     4.1701   103.2495  1180.2813 </r>
       <r>     4.2418   114.5162  1188.4869 </r>
       <r>     4.3134    75.1562  1193.8721 </r>
       <r>     4.3851    72.8699  1199.0935 </r>
       <r>     4.4567    65.3408  1203.7754 </r>
       <r>     4.5284    92.0814  1210.3734 </r>
       <r>     4.6000    93.3511  1217.0623 </r>
       <r>     4.6717   102.4684  1224.4045 </r>
       <r>     4.7433   139.4690  1234.3980 </r>
       <r>     4.8150   138.0519  1244.2899 </r>
       <r>     4.8866    72.7647  1249.5038 </r>
       <r>     4.9583    53.5185  1253.3386 </r>
       <r>     5.0299    55.0511  1257.2832 </r>
       <r>     5.1016    86.8925  1263.5094 </r>
       <r>     5.1733   144.1394  1273.8375 </r>
       <r>     5.2449   109.0604  1281.6521 </r>
       <r>     5.3166    63.1445  1286.1766 </r>
       <r>     5.3882    59.4432  1290.4359 </r>
       <r>     5.4599    69.2266  1295.3963 </r>
       <r>     5.5315    72.4265  1300.5859 </r>
       <r>     5.6032    76.5632  1306.0719 </r>
       <r>     5.6748   110.2556  1313.9722 </r>
       <r>     5.7465   132.2870  1323.4510 </r>
       <r>     5.8181    72.8782  1328.6730 </r>
       <r>     5.8898    64.4382  1333.2902 </r>
       <r>     5.9614    58.5537  1337.4858 </r>
       <r>     6.0331    30.4984  1339.6712 </r>
       <r>     6.1048    18.9566  1341.0295 </r>
       <r>     6.1764    21.5468  1342.5734 </r>
       <r>     6.2481    16.8923  1343.7838 </r>
       <r>     6.3197     9.0224  1344.4303 </r>
       <r>     6.3914     0.9683  1344.4996 </r>
       <r>     6.4630     0.1188  1344.5081 </r>
       <r>     6.5347     1.8848  1344.6432 </r>
       <r>     6.6063     1.7785  1344.7706 </r>
       <r>     6.6780     5.3155  1345.1515 </r>
       <r>     6.7496    22.8690  1346.7902 </r>
       <r>     6.8213    26.0629  1348.6577 </r>
       <r>     6.8929    11.2226  1349.4618 </r>
       <r>     6.9646     6.3243  1349.9150 </r>
       <r>     7.0363     8.9718  1350.5578 </r>
       <r>     7.1079     4.6726  1350.8926 </r>
       <r>     7.1796    21.4436  1352.4292 </r>
       <r>     7.2512    23.9460  1354.1450 </r>
       <r>     7.3229    28.0725  1356.1565 </r>
       <r>     7.3945    31.3612  1358.4036 </r>
       <r>     7.4662    30.3159  1360.5759 </r>
       <r>     7.5378    60.4291  1364.9058 </r>
       <r>     7.6095    71.7418  1370.0464 </r>
       <r>     7.6811    26.7598  1371.9638 </r>
       <r>     7.7528    54.5341  1375.8714 </r>
       <r>     7.8244    69.6243  1380.8602 </r>
       <r>     7.8961    73.2107  1386.1061 </r>
       <r>     7.9678    75.4522  1391.5125 </r>
       <r>     8.0394    66.2505  1396.2596 </r>
       <r>     8.1111    34.4773  1398.7300 </r>
       <r>     8.1827    18.6745  1400.0681 </r>
       <r>     8.2544     8.3983  1400.6699 </r>
       <r>     8.3260    10.2887  1401.4071 </r>
       <r>     8.3977    50.7481  1405.0434 </r>
       <r>     8.4693    34.2955  1407.5008 </r>
       <r>     8.5410    31.9965  1409.7935 </r>
       <r>     8.6126    94.7020  1416.5792 </r>
       <r>     8.6843   104.8189  1424.0899 </r>
       <r>     8.7559    58.6755  1428.2942 </r>
       <r>     8.8276    51.3750  1431.9754 </r>
       <r>     8.8992    33.4754  1434.3740 </r>
       <r>     8.9709    45.7820  1437.6545 </r>
       <r>     9.0426    30.3770  1439.8311 </r>
       <r>     9.1142    22.2813  1441.4276 </r>
       <r>     9.1859    10.3317  1442.1679 </r>
       <r>     9.2575    16.6076  1443.3579 </r>
       <r>     9.3292    53.3863  1447.1833 </r>
       <r>     9.4008    49.6937  1450.7440 </r>
       <r>     9.4725    54.3627  1454.6393 </r>
       <r>     9.5441    38.2980  1457.3835 </r>
       <r>     9.6158    50.8108  1461.0243 </r>
       <r>     9.6874    50.0088  1464.6076 </r>
       <r>     9.7591    47.8026  1468.0328 </r>
       <r>     9.8307    52.3657  1471.7850 </r>
       <r>     9.9024    76.3266  1477.2541 </r>
       <r>     9.9741    55.7588  1481.2494 </r>
       <r>    10.0457   108.1644  1488.9998 </r>
       <r>    10.1174   118.9252  1497.5212 </r>
       <r>    10.1890    43.2461  1500.6200 </r>
       <r>    10.2607    28.5345  1502.6646 </r>
       <r>    10.3323    48.8104  1506.1620 </r>
       <r>    10.4040    56.2424  1510.1920 </r>
       <r>    10.4756    90.2126  1516.6561 </r>
       <r>    10.5473   109.7260  1524.5183 </r>
       <r>    10.6189   111.9248  1532.5382 </r>
       <r>    10.6906    94.3063  1539.2956 </r>
       <r>    10.7622    78.2351  1544.9014 </r>
       <r>    10.8339   107.2848  1552.5887 </r>
       <r>    10.9056    90.0874  1559.0438 </r>
       <r>    10.9772    65.0537  1563.7052 </r>
       <r>    11.0489    35.0339  1566.2155 </r>
       <r>    11.1205    55.1950  1570.1704 </r>
       <r>    11.1922    51.9594  1573.8935 </r>
       <r>    11.2638    44.7170  1577.0976 </r>
       <r>    11.3355    82.9922  1583.0443 </r>
       <r>    11.4071    53.5804  1586.8836 </r>
       <r>    11.4788    54.8696  1590.8152 </r>
       <r>    11.5504    88.7131  1597.1718 </r>
       <r>    11.6221    68.2735  1602.0638 </r>
       <r>    11.6937    46.3563  1605.3854 </r>
       <r>    11.7654    12.2416  1606.2626 </r>
       <r>    11.8371    14.7083  1607.3165 </r>
       <r>    11.9087    36.1407  1609.9061 </r>
       <r>    11.9804    21.0830  1611.4168 </r>
       <r>    12.0520     3.0543  1611.6357 </r>
       <r>    12.1237     4.5248  1611.9599 </r>
       <r>    12.1953     0.5578  1611.9998 </r>
       <r>    12.2670     0.0022  1612.0000 </r>
       <r>    12.3386     0.0000  1612.0000 </r>
       <r>    12.4103     0.0000  1612.0000 </r>
       <r>    12.4819     0.0000  1612.0000 </r>
       <r>    12.5536     0.0000  1612.0000 </r>
       <r>    12.6252     0.0000  1612.0000 </r>
       <r>    12.6969     0.0000  1612.0000 </r>
       <r>    12.7685     0.0000  1612.0000 </r>
       <r>    12.8402     0.0000  1612.0000 </r>
       <r>    12.9119     0.0000  1612.0000 </r>
       <r>    12.9835     0.0000  1612.0000 </r>
       <r>    13.0552     0.0000  1612.0000 </r>
      </set>
     </set>
    </array>
   </total>
  </dos>
 </calculation>
 <structure name="finalpos" >
  <crystal>
   <varray name="basis" >
    <v>      14.01039598       0.00139138       0.00000000 </v>
    <v>      -0.00150196      13.76691092       0.00000000 </v>
    <v>       0.00000000       0.00000000      14.55019386 </v>
   </varray>
   <i name="volume">   2806.43958022 </i>
   <varray name="rec_basis" >
    <v>       0.07137557       0.00000779       0.00000000 </v>
    <v>      -0.00000721       0.07263794       0.00000000 </v>
    <v>       0.00000000       0.00000000       0.06872761 </v>
   </varray>
  </crystal>
  <varray name="positions" >
   <v>       0.42987898       0.17167077       0.33247735 </v>
   <v>       0.92987898       0.17167077       0.33247735 </v>
   <v>       0.42987898       0.67167077       0.33247735 </v>
   <v>       0.92987898       0.67167077       0.33247735 </v>
   <v>       0.42987898       0.17167077       0.66581068 </v>
   <v>       0.92987898       0.17167077       0.66581068 </v>
   <v>       0.42987898       0.67167077       0.66581068 </v>
   <v>       0.92987898       0.67167077       0.66581068 </v>
   <v>       0.42987898       0.17167077       0.99914401 </v>
   <v>       0.92987898       0.17167077       0.99914401 </v>
   <v>       0.42987898       0.67167077       0.99914401 </v>
   <v>       0.92987898       0.67167077       0.99914401 </v>
   <v>       0.07012102       0.32832923       0.33247735 </v>
   <v>       0.57012102       0.32832923       0.33247735 </v>
   <v>       0.07012102       0.82832923       0.33247735 </v>
   <v>       0.57012102       0.82832923       0.33247735 </v>
   <v>       0.07012102       0.32832923       0.66581068 </v>
   <v>       0.57012102       0.32832923       0.66581068 </v>
   <v>       0.07012102       0.82832923       0.66581068 </v>
   <v>       0.57012102       0.82832923       0.66581068 </v>
   <v>       0.07012102       0.32832923       0.99914401 </v>
   <v>       0.57012102       0.32832923       0.99914401 </v>
   <v>       0.07012102       0.82832923       0.99914401 </v>
   <v>       0.57012102       0.82832923       0.99914401 </v>
   <v>       0.32012053       0.42167367       0.05641075 </v>
   <v>       0.82012053       0.42167367       0.05641075 </v>
   <v>       0.32012053       0.92167367       0.05641075 </v>
   <v>       0.82012053       0.92167367       0.05641075 </v>
   <v>       0.32012053       0.42167367       0.38974408 </v>
   <v>       0.82012053       0.42167367       0.38974408 </v>
   <v>       0.32012053       0.92167367       0.38974408 </v>
   <v>       0.82012053       0.92167367       0.38974408 </v>
   <v>       0.32012053       0.42167367       0.72307741 </v>
   <v>       0.82012053       0.42167367       0.72307741 </v>
   <v>       0.32012053       0.92167367       0.72307741 </v>
   <v>       0.82012053       0.92167367       0.72307741 </v>
   <v>       0.17987947       0.07832633       0.05641075 </v>
   <v>       0.67987947       0.07832633       0.05641075 </v>
   <v>       0.17987947       0.57832633       0.05641075 </v>
   <v>       0.67987947       0.57832633       0.05641075 </v>
   <v>       0.17987947       0.07832633       0.38974408 </v>
   <v>       0.67987947       0.07832633       0.38974408 </v>
   <v>       0.17987947       0.57832633       0.38974408 </v>
   <v>       0.67987947       0.57832633       0.38974408 </v>
   <v>       0.17987947       0.07832633       0.72307741 </v>
   <v>       0.67987947       0.07832633       0.72307741 </v>
   <v>       0.17987947       0.57832633       0.72307741 </v>
   <v>       0.67987947       0.57832633       0.72307741 </v>
   <v>       0.17987776       0.32832369       0.16580856 </v>
   <v>       0.67987776       0.32832369       0.16580856 </v>
   <v>       0.17987776       0.82832369       0.16580856 </v>
   <v>       0.67987776       0.82832369       0.16580856 </v>
   <v>       0.17987776       0.32832369       0.49914189 </v>
   <v>       0.67987776       0.32832369       0.49914189 </v>
   <v>       0.17987776       0.82832369       0.49914189 </v>
   <v>       0.67987776       0.82832369       0.49914189 </v>
   <v>       0.17987776       0.32832369       0.83247522 </v>
   <v>       0.67987776       0.32832369       0.83247522 </v>
   <v>       0.17987776       0.82832369       0.83247522 </v>
   <v>       0.67987776       0.82832369       0.83247522 </v>
   <v>       0.32012224       0.17167631       0.16580856 </v>
   <v>       0.82012224       0.17167631       0.16580856 </v>
   <v>       0.32012224       0.67167631       0.16580856 </v>
   <v>       0.82012224       0.67167631       0.16580856 </v>
   <v>       0.32012224       0.17167631       0.49914189 </v>
   <v>       0.82012224       0.17167631       0.49914189 </v>
   <v>       0.32012224       0.67167631       0.49914189 </v>
   <v>       0.82012224       0.67167631       0.49914189 </v>
   <v>       0.32012224       0.17167631       0.83247522 </v>
   <v>       0.82012224       0.17167631       0.83247522 </v>
   <v>       0.32012224       0.67167631       0.83247522 </v>
   <v>       0.82012224       0.67167631       0.83247522 </v>
   <v>       0.42987656       0.42167494       0.22308000 </v>
   <v>       0.92987656       0.42167494       0.22308000 </v>
   <v>       0.42987656       0.92167494       0.22308000 </v>
   <v>       0.92987656       0.92167494       0.22308000 </v>
   <v>       0.42987656       0.42167494       0.55641333 </v>
   <v>       0.92987656       0.42167494       0.55641333 </v>
   <v>       0.42987656       0.92167494       0.55641333 </v>
   <v>       0.92987656       0.92167494       0.55641333 </v>
   <v>       0.42987656       0.42167494       0.88974666 </v>
   <v>       0.92987656       0.42167494       0.88974666 </v>
   <v>       0.42987656       0.92167494       0.88974666 </v>
   <v>       0.92987656       0.92167494       0.88974666 </v>
   <v>       0.07012344       0.07832506       0.22308000 </v>
   <v>       0.57012344       0.07832506       0.22308000 </v>
   <v>       0.07012344       0.57832506       0.22308000 </v>
   <v>       0.57012344       0.57832506       0.22308000 </v>
   <v>       0.07012344       0.07832506       0.55641333 </v>
   <v>       0.57012344       0.07832506       0.55641333 </v>
   <v>       0.07012344       0.57832506       0.55641333 </v>
   <v>       0.57012344       0.57832506       0.55641333 </v>
   <v>       0.07012344       0.07832506       0.88974666 </v>
   <v>       0.57012344       0.07832506       0.88974666 </v>
   <v>       0.07012344       0.57832506       0.88974666 </v>
   <v>       0.57012344       0.57832506       0.88974666 </v>
   <v>       0.00049507       0.00000000       0.05528872 </v>
   <v>       0.50000000       0.00000000       0.05479365 </v>
   <v>       0.00000000       0.50000000       0.05479365 </v>
   <v>       0.50000000       0.50000000       0.05479365 </v>
   <v>       0.00000000       0.00000000       0.38812698 </v>
   <v>       0.50000000       0.00000000       0.38812698 </v>
   <v>       0.00000000       0.50000000       0.38812698 </v>
   <v>       0.50000000       0.50000000       0.38812698 </v>
   <v>       0.00000000       0.00000000       0.72146032 </v>
   <v>       0.50000000       0.00000000       0.72146032 </v>
   <v>       0.00000000       0.50000000       0.72146032 </v>
   <v>       0.50000000       0.50000000       0.72146032 </v>
   <v>       0.25000000       0.00000000       0.22145206 </v>
   <v>       0.75000000       0.00000000       0.22145206 </v>
   <v>       0.25000000       0.50000000       0.22145206 </v>
   <v>       0.75000000       0.50000000       0.22145206 </v>
   <v>       0.25000000       0.00000000       0.55478539 </v>
   <v>       0.75000000       0.00000000       0.55478539 </v>
   <v>       0.25000000       0.50000000       0.55478539 </v>
   <v>       0.75000000       0.50000000       0.55478539 </v>
   <v>       0.25000000       0.00000000       0.88811873 </v>
   <v>       0.75000000       0.00000000       0.88811873 </v>
   <v>       0.25000000       0.50000000       0.88811873 </v>
   <v>       0.75000000       0.50000000       0.88811873 </v>
   <v>       0.00000000       0.25000000       0.16743769 </v>
   <v>       0.50000000       0.25000000       0.16743769 </v>
   <v>       0.00000000       0.75000000       0.16743769 </v>
   <v>       0.50000000       0.75000000       0.16743769 </v>
   <v>       0.00000000       0.25000000       0.50077102 </v>
   <v>       0.50000000       0.25000000       0.50077102 </v>
   <v>       0.00000000       0.75000000       0.50077102 </v>
   <v>       0.50000000       0.75000000       0.50077102 </v>
   <v>       0.00000000       0.25000000       0.83410435 </v>
   <v>       0.50000000       0.25000000       0.83410435 </v>
   <v>       0.00000000       0.75000000       0.83410435 </v>
   <v>       0.50000000       0.75000000       0.83410435 </v>
   <v>       0.25000000       0.25000000       0.00076332 </v>
   <v>       0.75000000       0.25000000       0.00076332 </v>
   <v>       0.25000000       0.75000000       0.00076332 </v>
   <v>       0.75000000       0.75000000       0.00076332 </v>
   <v>       0.25000000       0.25000000       0.33409665 </v>
   <v>       0.75000000       0.25000000       0.33409665 </v>
   <v>       0.25000000       0.75000000       0.33409665 </v>
   <v>       0.75000000       0.75000000       0.33409665 </v>
   <v>       0.25000000       0.25000000       0.66742999 </v>
   <v>       0.75000000       0.25000000       0.66742999 </v>
   <v>       0.25000000       0.75000000       0.66742999 </v>
   <v>       0.75000000       0.75000000       0.66742999 </v>
  </varray>
 </structure>
</modeling>
