<?xml version="1.0" encoding="ISO-8859-1"?>
<modeling>
 <generator>
  <i name="program" type="string">vasp </i>
  <i name="version" type="string">5.4.4.18Apr17-6-g9f103f2a35  </i>
  <i name="subversion" type="string">(build Jul 30 2020 14:31:59) complex            parallel </i>
  <i name="platform" type="string">LinuxIFC </i>
  <i name="date" type="string">2021 02 04 </i>
  <i name="time" type="string">08:53:26 </i>
 </generator>
 <incar>
  <i type="string" name="PREC">accurate</i>
  <i type="string" name="ALGO"> normal</i>
  <i type="logical" name="ADDGRID"> T  </i>
  <i type="int" name="ISPIN">     1</i>
  <i type="int" name="NELM">   200</i>
  <i type="int" name="NELMIN">     8</i>
  <i name="EDIFF">      0.00000001</i>
  <i type="int" name="ISIF">     3</i>
  <i type="int" name="ISYM">     0</i>
  <i name="ENCUT">    650.00000000</i>
  <i type="logical" name="LREAL"> F  </i>
  <i type="int" name="ISMEAR">     0</i>
  <i name="SIGMA">      0.05000000</i>
  <i type="logical" name="LWAVE"> F  </i>
  <i type="logical" name="LASPH"> T  </i>
  <v type="int" name="KPOINT_BSE">    -1     0     0     0</v>
  <i type="int" name="NELM">   200</i>
  <i type="string" name="GGA"> ps</i>
  <i type="logical" name="LASPH"> T  </i>
 </incar>
 <structure name="primitive_cell" >
  <crystal>
   <varray name="basis" >
    <v>      14.01039598       0.00139138       0.00000000 </v>
    <v>      -0.00150196      13.76691092       0.00000000 </v>
    <v>       0.00000000       0.00000000      14.55019386 </v>
   </varray>
   <i name="volume">   2806.43958022 </i>
   <varray name="rec_basis" >
    <v>       0.07137557       0.00000779       0.00000000 </v>
    <v>      -0.00000721       0.07263794       0.00000000 </v>
    <v>       0.00000000       0.00000000       0.06872761 </v>
   </varray>
  </crystal>
  <varray name="positions" >
   <v>       0.42916522       0.17167077       0.33247735 </v>
   <v>      -0.50000000       0.00000000       0.38812698 </v>
   <v>       0.25000000       0.25000000       0.33409665 </v>
   <v>      -0.50000000       0.25000000       0.16743769 </v>
   <v>      -0.42987656       0.07832506       0.22308000 </v>
   <v>      -0.50000000       0.25000000      -0.49922898 </v>
   <v>       0.32012224       0.17167631       0.49914189 </v>
   <v>       0.32012224       0.17167631       0.16580856 </v>
   <v>      -0.42987898       0.32832923       0.33247735 </v>
   <v>       0.42987656      -0.07832506       0.22308000 </v>
   <v>       0.42987656       0.42167494       0.22308000 </v>
   <v>       0.25000000       0.00000000       0.22145206 </v>
   <v>       0.17987948       0.07832633       0.38974408 </v>
   <v>      -0.32012052       0.07832633       0.38974408 </v>
   <v>       0.32012052      -0.07832633       0.38974408 </v>
   <v>       0.32012052       0.42167367       0.38974408 </v>
   <v>      -0.42987656       0.07832506      -0.44358667 </v>
   <v>      -0.25000000       0.25000000       0.33409665 </v>
   <v>      -0.50000000      -0.50000000       0.38812698 </v>
   <v>       0.25000000       0.00000000      -0.44521461 </v>
   <v>       0.42987656      -0.07832506      -0.44358667 </v>
   <v>       0.42987656       0.42167494      -0.44358667 </v>
   <v>       0.17987776       0.32832369       0.49914189 </v>
   <v>       0.17987776       0.32832369       0.16580856 </v>
   <v>      -0.32012224       0.32832369       0.49914189 </v>
   <v>      -0.32012224       0.32832369       0.16580856 </v>
   <v>      -0.50000000       0.00000000       0.05479365 </v>
   <v>       0.42987898       0.17167077      -0.33418932 </v>
   <v>       0.42987898       0.17167077      -0.00085599 </v>
   <v>      -0.42987898      -0.17167077       0.33247735 </v>
   <v>      -0.25000000       0.00000000       0.22145206 </v>
   <v>       0.25000000      -0.50000000       0.22145206 </v>
   <v>       0.07012344       0.07832506       0.22308000 </v>
   <v>       0.07012102       0.32832923       0.33247735 </v>
   <v>       0.17987948       0.07832633       0.05641075 </v>
   <v>      -0.32012052       0.07832633       0.05641075 </v>
   <v>       0.32012052      -0.07832633       0.05641075 </v>
   <v>       0.32012052       0.42167367       0.05641075 </v>
   <v>       0.25000000       0.25000000       0.00076332 </v>
   <v>       0.25000000       0.25000000      -0.33257001 </v>
   <v>      -0.42987898       0.32832923      -0.33418932 </v>
   <v>      -0.42987898       0.32832923      -0.00085599 </v>
   <v>      -0.17987776       0.17167631       0.49914189 </v>
   <v>      -0.17987776       0.17167631       0.16580856 </v>
   <v>      -0.25000000       0.00000000      -0.44521461 </v>
   <v>       0.25000000      -0.50000000      -0.44521461 </v>
   <v>       0.07012344       0.07832506      -0.44358667 </v>
   <v>      -0.50000000      -0.50000000       0.05479365 </v>
   <v>      -0.42987656      -0.42167494       0.22308000 </v>
   <v>      -0.50000000       0.00000000      -0.27853968 </v>
   <v>       0.25000000      -0.25000000       0.33409665 </v>
   <v>       0.17987776      -0.17167631       0.49914189 </v>
   <v>       0.17987776      -0.17167631       0.16580856 </v>
   <v>      -0.50000000      -0.25000000       0.16743769 </v>
   <v>      -0.32012224      -0.17167631       0.49914189 </v>
   <v>      -0.32012224      -0.17167631       0.16580856 </v>
   <v>      -0.50000000      -0.25000000      -0.49922898 </v>
   <v>       0.00000000       0.00000000       0.38812698 </v>
   <v>      -0.17987948       0.42167367       0.38974408 </v>
   <v>      -0.17987948      -0.07832633       0.38974408 </v>
   <v>       0.00000000       0.25000000       0.16743769 </v>
   <v>      -0.25000000      -0.50000000       0.22145206 </v>
   <v>       0.00000000       0.25000000      -0.49922898 </v>
   <v>       0.17987948      -0.42167367       0.38974408 </v>
   <v>      -0.32012052      -0.42167367       0.38974408 </v>
   <v>      -0.25000000       0.25000000       0.00076332 </v>
   <v>      -0.25000000       0.25000000      -0.33257001 </v>
   <v>      -0.42987656      -0.42167494      -0.44358667 </v>
   <v>       0.17987948       0.07832633      -0.27692259 </v>
   <v>      -0.32012052       0.07832633      -0.27692259 </v>
   <v>       0.32012052      -0.07832633      -0.27692259 </v>
   <v>       0.32012052       0.42167367      -0.27692259 </v>
   <v>      -0.42987656       0.07832506      -0.11025334 </v>
   <v>       0.42987898      -0.32832923       0.33247735 </v>
   <v>       0.07012102      -0.17167077       0.33247735 </v>
   <v>      -0.07012102       0.17167077       0.33247735 </v>
   <v>      -0.42987898      -0.17167077      -0.33418932 </v>
   <v>      -0.42987898      -0.17167077      -0.00085599 </v>
   <v>      -0.25000000      -0.50000000      -0.44521461 </v>
   <v>       0.42987656      -0.07832506      -0.11025334 </v>
   <v>       0.42987656       0.42167494      -0.11025334 </v>
   <v>      -0.50000000      -0.50000000      -0.27853968 </v>
   <v>       0.07012102       0.32832923      -0.33418932 </v>
   <v>       0.07012102       0.32832923      -0.00085599 </v>
   <v>       0.25000000       0.00000000      -0.11188127 </v>
   <v>      -0.25000000      -0.25000000       0.33409665 </v>
   <v>      -0.50000000       0.25000000      -0.16589565 </v>
   <v>       0.32012224       0.17167631      -0.16752478 </v>
   <v>       0.32012224      -0.32832369       0.49914189 </v>
   <v>       0.32012224      -0.32832369       0.16580856 </v>
   <v>       0.00000000      -0.50000000       0.38812698 </v>
   <v>      -0.17987948       0.42167367       0.05641075 </v>
   <v>      -0.17987948      -0.07832633       0.05641075 </v>
   <v>       0.00000000       0.00000000       0.05479365 </v>
   <v>       0.07012344      -0.42167494       0.22308000 </v>
   <v>       0.17987948      -0.42167367       0.05641075 </v>
   <v>      -0.32012052      -0.42167367       0.05641075 </v>
   <v>       0.25000000      -0.25000000       0.00076332 </v>
   <v>      -0.07012344      -0.07832506       0.22308000 </v>
   <v>      -0.07012344       0.42167494       0.22308000 </v>
   <v>       0.25000000      -0.25000000      -0.33257001 </v>
   <v>       0.07012344      -0.42167494      -0.44358667 </v>
   <v>      -0.25000000       0.00000000      -0.11188127 </v>
   <v>       0.07012344       0.07832506      -0.11025334 </v>
   <v>       0.25000000      -0.50000000      -0.11188127 </v>
   <v>       0.17987776       0.32832369      -0.16752478 </v>
   <v>      -0.32012224       0.32832369      -0.16752478 </v>
   <v>       0.42987898      -0.32832923      -0.33418932 </v>
   <v>       0.42987898      -0.32832923      -0.00085599 </v>
   <v>       0.07012102      -0.17167077      -0.33418932 </v>
   <v>       0.07012102      -0.17167077      -0.00085599 </v>
   <v>      -0.07012344      -0.07832506      -0.44358667 </v>
   <v>      -0.07012344       0.42167494      -0.44358667 </v>
   <v>      -0.07012102       0.17167077      -0.33418932 </v>
   <v>      -0.07012102       0.17167077      -0.00085599 </v>
   <v>       0.00000000      -0.50000000       0.05479365 </v>
   <v>       0.00000000       0.00000000      -0.27853968 </v>
   <v>      -0.17987948       0.42167367      -0.27692259 </v>
   <v>      -0.17987948      -0.07832633      -0.27692259 </v>
   <v>       0.00000000      -0.25000000       0.16743769 </v>
   <v>       0.17987948      -0.42167367      -0.27692259 </v>
   <v>       0.00000000      -0.25000000      -0.49922898 </v>
   <v>      -0.32012052      -0.42167367      -0.27692259 </v>
   <v>      -0.42987656      -0.42167494      -0.11025334 </v>
   <v>      -0.25000000      -0.25000000       0.00076332 </v>
   <v>      -0.25000000      -0.25000000      -0.33257001 </v>
   <v>      -0.25000000      -0.50000000      -0.11188127 </v>
   <v>      -0.17987776       0.17167631      -0.16752478 </v>
   <v>      -0.17987776      -0.32832369       0.49914189 </v>
   <v>      -0.17987776      -0.32832369       0.16580856 </v>
   <v>      -0.50000000      -0.25000000      -0.16589565 </v>
   <v>       0.17987776      -0.17167631      -0.16752478 </v>
   <v>      -0.32012224      -0.17167631      -0.16752478 </v>
   <v>       0.00000000      -0.50000000      -0.27853968 </v>
   <v>       0.00000000       0.25000000      -0.16589565 </v>
   <v>      -0.07012102      -0.32832923       0.33247735 </v>
   <v>       0.07012344      -0.42167494      -0.11025334 </v>
   <v>      -0.07012344      -0.07832506      -0.11025334 </v>
   <v>      -0.07012344       0.42167494      -0.11025334 </v>
   <v>       0.32012224      -0.32832369      -0.16752478 </v>
   <v>      -0.07012102      -0.32832923      -0.33418932 </v>
   <v>      -0.07012102      -0.32832923      -0.00085599 </v>
   <v>       0.00000000      -0.25000000      -0.16589565 </v>
   <v>      -0.17987776      -0.32832369      -0.16752478 </v>
  </varray>
 </structure>
 <varray name="primitive_index" >
  <v type="int" >        1 </v>
  <v type="int" >      102 </v>
  <v type="int" >      137 </v>
  <v type="int" >      122 </v>
  <v type="int" >       86 </v>
  <v type="int" >      126 </v>
  <v type="int" >       65 </v>
  <v type="int" >       61 </v>
  <v type="int" >       14 </v>
  <v type="int" >       75 </v>
  <v type="int" >       73 </v>
  <v type="int" >      109 </v>
  <v type="int" >       41 </v>
  <v type="int" >       42 </v>
  <v type="int" >       31 </v>
  <v type="int" >       29 </v>
  <v type="int" >       90 </v>
  <v type="int" >      138 </v>
  <v type="int" >      104 </v>
  <v type="int" >      113 </v>
  <v type="int" >       79 </v>
  <v type="int" >       77 </v>
  <v type="int" >       53 </v>
  <v type="int" >       49 </v>
  <v type="int" >       54 </v>
  <v type="int" >       50 </v>
  <v type="int" >       98 </v>
  <v type="int" >        5 </v>
  <v type="int" >        9 </v>
  <v type="int" >       16 </v>
  <v type="int" >      110 </v>
  <v type="int" >      111 </v>
  <v type="int" >       85 </v>
  <v type="int" >       13 </v>
  <v type="int" >       37 </v>
  <v type="int" >       38 </v>
  <v type="int" >       27 </v>
  <v type="int" >       25 </v>
  <v type="int" >      133 </v>
  <v type="int" >      141 </v>
  <v type="int" >       18 </v>
  <v type="int" >       22 </v>
  <v type="int" >       66 </v>
  <v type="int" >       62 </v>
  <v type="int" >      114 </v>
  <v type="int" >      115 </v>
  <v type="int" >       89 </v>
  <v type="int" >      100 </v>
  <v type="int" >       88 </v>
  <v type="int" >      106 </v>
  <v type="int" >      139 </v>
  <v type="int" >       55 </v>
  <v type="int" >       51 </v>
  <v type="int" >      124 </v>
  <v type="int" >       56 </v>
  <v type="int" >       52 </v>
  <v type="int" >      128 </v>
  <v type="int" >      101 </v>
  <v type="int" >       30 </v>
  <v type="int" >       32 </v>
  <v type="int" >      121 </v>
  <v type="int" >      112 </v>
  <v type="int" >      125 </v>
  <v type="int" >       43 </v>
  <v type="int" >       44 </v>
  <v type="int" >      134 </v>
  <v type="int" >      142 </v>
  <v type="int" >       92 </v>
  <v type="int" >       45 </v>
  <v type="int" >       46 </v>
  <v type="int" >       35 </v>
  <v type="int" >       33 </v>
  <v type="int" >       94 </v>
  <v type="int" >        3 </v>
  <v type="int" >       15 </v>
  <v type="int" >        2 </v>
  <v type="int" >       20 </v>
  <v type="int" >       24 </v>
  <v type="int" >      116 </v>
  <v type="int" >       83 </v>
  <v type="int" >       81 </v>
  <v type="int" >      108 </v>
  <v type="int" >       17 </v>
  <v type="int" >       21 </v>
  <v type="int" >      117 </v>
  <v type="int" >      140 </v>
  <v type="int" >      130 </v>
  <v type="int" >       69 </v>
  <v type="int" >       67 </v>
  <v type="int" >       63 </v>
  <v type="int" >      103 </v>
  <v type="int" >       26 </v>
  <v type="int" >       28 </v>
  <v type="int" >       97 </v>
  <v type="int" >       87 </v>
  <v type="int" >       39 </v>
  <v type="int" >       40 </v>
  <v type="int" >      135 </v>
  <v type="int" >       76 </v>
  <v type="int" >       74 </v>
  <v type="int" >      143 </v>
  <v type="int" >       91 </v>
  <v type="int" >      118 </v>
  <v type="int" >       93 </v>
  <v type="int" >      119 </v>
  <v type="int" >       57 </v>
  <v type="int" >       58 </v>
  <v type="int" >        7 </v>
  <v type="int" >       11 </v>
  <v type="int" >       19 </v>
  <v type="int" >       23 </v>
  <v type="int" >       80 </v>
  <v type="int" >       78 </v>
  <v type="int" >        6 </v>
  <v type="int" >       10 </v>
  <v type="int" >       99 </v>
  <v type="int" >      105 </v>
  <v type="int" >       34 </v>
  <v type="int" >       36 </v>
  <v type="int" >      123 </v>
  <v type="int" >       47 </v>
  <v type="int" >      127 </v>
  <v type="int" >       48 </v>
  <v type="int" >       96 </v>
  <v type="int" >      136 </v>
  <v type="int" >      144 </v>
  <v type="int" >      120 </v>
  <v type="int" >       70 </v>
  <v type="int" >       68 </v>
  <v type="int" >       64 </v>
  <v type="int" >      132 </v>
  <v type="int" >       59 </v>
  <v type="int" >       60 </v>
  <v type="int" >      107 </v>
  <v type="int" >      129 </v>
  <v type="int" >        4 </v>
  <v type="int" >       95 </v>
  <v type="int" >       84 </v>
  <v type="int" >       82 </v>
  <v type="int" >       71 </v>
  <v type="int" >        8 </v>
  <v type="int" >       12 </v>
  <v type="int" >      131 </v>
  <v type="int" >       72 </v>
 </varray>
 <kpoints>
  <generation param="Gamma">
   <v type="int" name="divisions">       2        2        2 </v>
   <v name="usershift">      0.00000000       0.00000000       0.00000000 </v>
   <v name="genvec1">      0.50000000       0.00000000       0.00000000 </v>
   <v name="genvec2">      0.00000000       0.50000000       0.00000000 </v>
   <v name="genvec3">      0.00000000       0.00000000       0.50000000 </v>
   <v name="shift">      0.00000000       0.00000000       0.00000000 </v>
  </generation>
  <varray name="kpointlist" >
   <v>       0.00000000       0.00000000       0.00000000 </v>
   <v>       0.50000000      -0.00000000       0.00000000 </v>
   <v>       0.00000000       0.50000000       0.00000000 </v>
   <v>       0.50000000       0.50000000       0.00000000 </v>
   <v>       0.00000000       0.00000000       0.50000000 </v>
   <v>       0.50000000      -0.00000000       0.50000000 </v>
   <v>       0.00000000       0.50000000       0.50000000 </v>
   <v>       0.50000000       0.50000000       0.50000000 </v>
  </varray>
  <varray name="weights" >
   <v>       0.12500000 </v>
   <v>       0.12500000 </v>
   <v>       0.12500000 </v>
   <v>       0.12500000 </v>
   <v>       0.12500000 </v>
   <v>       0.12500000 </v>
   <v>       0.12500000 </v>
   <v>       0.12500000 </v>
  </varray>
 </kpoints>
 <parameters>
  <separator name="general" >
   <i type="string" name="SYSTEM">unknown system</i>
   <i type="logical" name="LCOMPAT"> F  </i>
  </separator>
  <separator name="electronic" >
   <i type="string" name="PREC">accura</i>
   <i name="ENMAX">    650.00000000</i>
   <i name="ENAUG">    446.84200000</i>
   <i name="EDIFF">      0.00000001</i>
   <i type="int" name="IALGO">    38</i>
   <i type="int" name="IWAVPR">    10</i>
   <i type="int" name="NBANDS">   806</i>
   <i name="NELECT">   1344.00000000</i>
   <i type="int" name="TURBO">     0</i>
   <i type="int" name="IRESTART">     0</i>
   <i type="int" name="NREBOOT">     0</i>
   <i type="int" name="NMIN">     0</i>
   <i name="EREF">      0.00000000</i>
   <separator name="electronic smearing" >
    <i type="int" name="ISMEAR">     0</i>
    <i name="SIGMA">      0.05000000</i>
    <i name="KSPACING">      0.50000000</i>
    <i type="logical" name="KGAMMA"> T  </i>
   </separator>
   <separator name="electronic projectors" >
    <i type="logical" name="LREAL"> F  </i>
    <v name="ROPT">      0.00000000      0.00000000</v>
    <i type="int" name="LMAXPAW">  -100</i>
    <i type="int" name="LMAXMIX">     2</i>
    <i type="logical" name="NLSPLINE"> F  </i>
   </separator>
   <separator name="electronic startup" >
    <i type="int" name="ISTART">     0</i>
    <i type="int" name="ICHARG">     2</i>
    <i type="int" name="INIWAV">     1</i>
   </separator>
   <separator name="electronic spin" >
    <i type="int" name="ISPIN">     1</i>
    <i type="logical" name="LNONCOLLINEAR"> F  </i>
    <v name="MAGMOM">      1.00000000      1.00000000      1.00000000      1.00000000      1.00000000      1.00000000      1.00000000      1.00000000      1.00000000      1.00000000      1.00000000      1.00000000      1.00000000      1.00000000      1.00000000      1.00000000      1.00000000      1.00000000      1.00000000      1.00000000
      1.00000000      1.00000000      1.00000000      1.00000000      1.00000000      1.00000000      1.00000000      1.00000000      1.00000000      1.00000000      1.00000000      1.00000000      1.00000000      1.00000000      1.00000000      1.00000000      1.00000000      1.00000000      1.00000000      1.00000000
      1.00000000      1.00000000      1.00000000      1.00000000      1.00000000      1.00000000      1.00000000      1.00000000      1.00000000      1.00000000      1.00000000      1.00000000      1.00000000      1.00000000      1.00000000      1.00000000      1.00000000      1.00000000      1.00000000      1.00000000
      1.00000000      1.00000000      1.00000000      1.00000000      1.00000000      1.00000000      1.00000000      1.00000000      1.00000000      1.00000000      1.00000000      1.00000000      1.00000000      1.00000000      1.00000000      1.00000000      1.00000000      1.00000000      1.00000000      1.00000000
      1.00000000      1.00000000      1.00000000      1.00000000      1.00000000      1.00000000      1.00000000      1.00000000      1.00000000      1.00000000      1.00000000      1.00000000      1.00000000      1.00000000      1.00000000      1.00000000      1.00000000      1.00000000      1.00000000      1.00000000
      1.00000000      1.00000000      1.00000000      1.00000000      1.00000000      1.00000000      1.00000000      1.00000000      1.00000000      1.00000000      1.00000000      1.00000000      1.00000000      1.00000000      1.00000000      1.00000000      1.00000000      1.00000000      1.00000000      1.00000000
      1.00000000      1.00000000      1.00000000      1.00000000      1.00000000      1.00000000      1.00000000      1.00000000      1.00000000      1.00000000      1.00000000      1.00000000      1.00000000      1.00000000      1.00000000      1.00000000      1.00000000      1.00000000      1.00000000      1.00000000
      1.00000000      1.00000000      1.00000000      1.00000000</v>
    <i name="NUPDOWN">     -1.00000000</i>
    <i type="logical" name="LSORBIT"> F  </i>
    <v name="SAXIS">      0.00000000      0.00000000      1.00000000</v>
    <i type="logical" name="LSPIRAL"> F  </i>
    <v name="QSPIRAL">      0.00000000      0.00000000      0.00000000</v>
    <i type="logical" name="LZEROZ"> F  </i>
   </separator>
   <separator name="electronic exchange-correlation" >
    <i type="logical" name="LASPH"> T  </i>
    <i type="logical" name="LMETAGGA"> F  </i>
   </separator>
   <separator name="electronic convergence" >
    <i type="int" name="NELM">   200</i>
    <i type="int" name="NELMDL">    -5</i>
    <i type="int" name="NELMIN">     8</i>
    <i name="ENINI">    650.00000000</i>
    <separator name="electronic convergence detail" >
     <i type="logical" name="LDIAG"> T  </i>
     <i type="logical" name="LSUBROT"> F  </i>
     <i name="WEIMIN">      0.00000000</i>
     <i name="EBREAK">      0.00000000</i>
     <i name="DEPER">      0.30000000</i>
     <i type="int" name="NRMM">     4</i>
     <i name="TIME">      0.40000000</i>
    </separator>
   </separator>
   <separator name="electronic mixer" >
    <i name="AMIX">      0.40000000</i>
    <i name="BMIX">      1.00000000</i>
    <i name="AMIN">      0.10000000</i>
    <i name="AMIX_MAG">      1.60000000</i>
    <i name="BMIX_MAG">      1.00000000</i>
    <separator name="electronic mixer details" >
     <i type="int" name="IMIX">     4</i>
     <i type="logical" name="MIXFIRST"> F  </i>
     <i type="int" name="MAXMIX">   -45</i>
     <i name="WC">    100.00000000</i>
     <i type="int" name="INIMIX">     1</i>
     <i type="int" name="MIXPRE">     1</i>
     <i type="int" name="MREMOVE">     5</i>
    </separator>
   </separator>
   <separator name="electronic dipolcorrection" >
    <i type="logical" name="LDIPOL"> F  </i>
    <i type="logical" name="LMONO"> F  </i>
    <i type="int" name="IDIPOL">     0</i>
    <i name="EPSILON">      1.00000000</i>
    <v name="DIPOL">   -100.00000000   -100.00000000   -100.00000000</v>
    <i name="EFIELD">      0.00000000</i>
   </separator>
  </separator>
  <separator name="grids" >
   <i type="int" name="NGX">   120</i>
   <i type="int" name="NGY">   120</i>
   <i type="int" name="NGZ">   126</i>
   <i type="int" name="NGXF">   240</i>
   <i type="int" name="NGYF">   240</i>
   <i type="int" name="NGZF">   252</i>
   <i type="logical" name="ADDGRID"> T  </i>
  </separator>
  <separator name="ionic" >
   <i type="int" name="NSW">     0</i>
   <i type="int" name="IBRION">    -1</i>
   <i type="int" name="MDALGO">     0</i>
   <i type="int" name="ISIF">     3</i>
   <i name="PSTRESS">      0.00000000</i>
   <i name="EDIFFG">      0.00000010</i>
   <i type="int" name="NFREE">     0</i>
   <i name="POTIM">      0.50000000</i>
   <i name="SMASS">     -3.00000000</i>
   <i name="SCALEE">      1.00000000</i>
  </separator>
  <separator name="ionic md" >
   <i name="TEBEG">      0.00010000</i>
   <i name="TEEND">      0.00010000</i>
   <i type="int" name="NBLOCK">     1</i>
   <i type="int" name="KBLOCK">     1</i>
   <i type="int" name="NPACO">   256</i>
   <i name="APACO">     16.00000000</i>
  </separator>
  <separator name="symmetry" >
   <i type="int" name="ISYM">     0</i>
   <i name="SYMPREC">      0.00001000</i>
  </separator>
  <separator name="dos" >
   <i type="int" name="LORBIT">     0</i>
   <v name="RWIGS">     -1.00000000     -1.00000000</v>
   <i type="int" name="NEDOS">   301</i>
   <i name="EMIN">     10.00000000</i>
   <i name="EMAX">    -10.00000000</i>
   <i name="EFERMI">      0.00000000</i>
  </separator>
  <separator name="writing" >
   <i type="int" name="NWRITE">     2</i>
   <i type="logical" name="LWAVE"> F  </i>
   <i type="logical" name="LDOWNSAMPLE"> F  </i>
   <i type="logical" name="LCHARG"> T  </i>
   <i type="logical" name="LPARD"> F  </i>
   <i type="logical" name="LVTOT"> F  </i>
   <i type="logical" name="LVHAR"> F  </i>
   <i type="logical" name="LELF"> F  </i>
   <i type="logical" name="LOPTICS"> F  </i>
   <v name="STM">      0.00000000      0.00000000      0.00000000      0.00000000      0.00000000      0.00000000      0.00000000</v>
  </separator>
  <separator name="performance" >
   <i type="int" name="NPAR">     1</i>
   <i type="int" name="NSIM">     4</i>
   <i type="int" name="NBLK">    -1</i>
   <i type="logical" name="LPLANE"> T  </i>
   <i type="logical" name="LSCALAPACK"> T  </i>
   <i type="logical" name="LSCAAWARE"> F  </i>
   <i type="logical" name="LSCALU"> F  </i>
   <i type="logical" name="LASYNC"> F  </i>
   <i type="logical" name="LORBITALREAL"> F  </i>
  </separator>
  <separator name="miscellaneous" >
   <i type="int" name="IDIOT">     3</i>
   <i type="int" name="ISPECIAL">     0</i>
   <i type="logical" name="LMUSIC"> F  </i>
   <v name="POMASS">    107.86800000     78.96000000</v>
   <v name="DARWINR">      0.00000000      0.00000000</v>
   <v name="DARWINV">      1.00000000      1.00000000</v>
   <i type="logical" name="LCORR"> T  </i>
  </separator>
  <i type="logical" name="GGA_COMPAT"> T  </i>
  <i type="logical" name="LBERRY"> F  </i>
  <i type="int" name="ICORELEVEL">     0</i>
  <i type="logical" name="LDAU"> F  </i>
  <i type="int" name="I_CONSTRAINED_M">     0</i>
  <separator name="electronic exchange-correlation" >
   <i type="string" name="GGA">PS</i>
   <i type="int" name="VOSKOWN">     0</i>
   <i type="logical" name="LHFCALC"> F  </i>
   <i type="string" name="PRECFOCK"></i>
   <i type="logical" name="LSYMGRAD"> F  </i>
   <i type="logical" name="LHFONE"> F  </i>
   <i type="logical" name="LRHFCALC"> F  </i>
   <i type="logical" name="LTHOMAS"> F  </i>
   <i type="logical" name="LMODELHF"> F  </i>
   <i name="ENCUT4O">     -1.00000000</i>
   <i type="int" name="EXXOEP">     0</i>
   <i type="int" name="FOURORBIT">     0</i>
   <i name="AEXX">      0.00000000</i>
   <i name="HFALPHA">      0.00000000</i>
   <i name="MCALPHA">      0.00000000</i>
   <i name="ALDAX">      1.00000000</i>
   <i name="AGGAX">      1.00000000</i>
   <i name="ALDAC">      1.00000000</i>
   <i name="AGGAC">      1.00000000</i>
   <i type="int" name="NKREDX">     1</i>
   <i type="int" name="NKREDY">     1</i>
   <i type="int" name="NKREDZ">     1</i>
   <i type="logical" name="SHIFTRED"> F  </i>
   <i type="logical" name="ODDONLY"> F  </i>
   <i type="logical" name="EVENONLY"> F  </i>
   <i type="int" name="LMAXFOCK">     0</i>
   <i type="int" name="NMAXFOCKAE">     0</i>
   <i type="logical" name="LFOCKAEDFT"> F  </i>
   <i name="HFSCREEN">      0.00000000</i>
   <i name="HFSCREENC">      0.00000000</i>
   <i type="int" name="NBANDSGWLOW">     0</i>
  </separator>
  <separator name="vdW DFT" >
   <i type="logical" name="LUSE_VDW"> F  </i>
   <i name="Zab_VDW">     -0.84910000</i>
   <i name="PARAM1">      0.12340000</i>
   <i name="PARAM2">      1.00000000</i>
   <i name="PARAM3">      0.00000000</i>
  </separator>
  <separator name="model GW" >
   <i type="int" name="MODEL_GW">     0</i>
   <i name="MODEL_EPS0">     11.69349825</i>
   <i name="MODEL_ALPHA">      1.00000000</i>
  </separator>
  <separator name="linear response parameters" >
   <i type="logical" name="LEPSILON"> F  </i>
   <i type="logical" name="LRPA"> F  </i>
   <i type="logical" name="LNABLA"> F  </i>
   <i type="logical" name="LVEL"> F  </i>
   <i type="int" name="KINTER">     0</i>
   <i name="CSHIFT">      0.10000000</i>
   <i name="OMEGAMAX">     -1.00000000</i>
   <i name="DEG_THRESHOLD">      0.00200000</i>
   <i name="RTIME">     -0.10000000</i>
   <i name="WPLASMAI">      0.00000000</i>
   <v name="DFIELD">      0.00000000      0.00000000      0.00000000</v>
   <v name="WPLASMA">      0.00000000      0.00000000      0.00000000      0.00000000      0.00000000      0.00000000      0.00000000      0.00000000      0.00000000</v>
  </separator>
  <separator name="orbital magnetization" >
   <i type="logical" name="NUCIND"> F  </i>
   <v name="MAGPOS">      0.00000000      0.00000000      0.00000000</v>
   <i type="logical" name="LNICSALL"> T  </i>
   <i type="logical" name="ORBITALMAG"> F  </i>
   <i type="logical" name="LMAGBLOCH"> F  </i>
   <i type="logical" name="LCHIMAG"> F  </i>
   <i type="logical" name="LGAUGE"> T  </i>
   <i type="int" name="MAGATOM">     0</i>
   <v name="MAGDIPOL">      0.00000000      0.00000000      0.00000000</v>
   <v name="AVECCONST">      0.00000000      0.00000000      0.00000000</v>
  </separator>
  <separator name="response functions" >
   <i type="logical" name="LADDER"> F  </i>
   <i type="logical" name="LRPAFORCE"> F  </i>
   <i type="logical" name="LFXC"> F  </i>
   <i type="logical" name="LHARTREE"> T  </i>
   <i type="int" name="IBSE">     0</i>
   <v type="int" name="KPOINT">    -1     0     0     0</v>
   <i type="logical" name="LTCTE"> F  </i>
   <i type="logical" name="LTETE"> F  </i>
   <i type="logical" name="LTRIPLET"> F  </i>
   <i type="logical" name="LFXCEPS"> F  </i>
   <i type="logical" name="LFXHEG"> F  </i>
   <i type="int" name="NATURALO">     2</i>
   <i type="logical" name="L2ORDER"> F  </i>
   <i type="logical" name="LMP2LT"> F  </i>
   <i type="logical" name="LUSEW"> F  </i>
   <i name="ENCUTGW">     -2.00000000</i>
   <i name="ENCUTGWSOFT">     -2.00000000</i>
   <i name="ENCUTLF">     -1.00000000</i>
   <i type="int" name="LMAXMP2">    -1</i>
   <i name="SCISSOR">      0.00000000</i>
   <i type="int" name="NOMEGA">     0</i>
   <i type="int" name="NOMEGAR">     0</i>
   <i type="int" name="NBANDSGW">    -1</i>
   <i type="int" name="NBANDSO">    -1</i>
   <i type="int" name="NBANDSV">    -1</i>
   <i type="int" name="NELM">   200</i>
   <i type="int" name="NELMHF">     1</i>
   <i type="int" name="DIM">     3</i>
   <i type="int" name="ANTIRES">     0</i>
   <i name="OMEGAMAX">    -30.00000000</i>
   <i name="OMEGAMIN">    -30.00000000</i>
   <i name="OMEGATL">   -200.00000000</i>
   <i type="int" name="OMEGAGRID">   140</i>
   <i name="CSHIFT">     -0.10000000</i>
   <i type="logical" name="SELFENERGY"> F  </i>
   <i type="logical" name="LSPECTRAL"> F  </i>
   <i type="logical" name="LSPECTRALGW"> F  </i>
   <i type="logical" name="LSINGLES"> F  </i>
   <i type="logical" name="LFERMIGW"> F  </i>
   <i type="logical" name="ODDONLYGW"> F  </i>
   <i type="logical" name="EVENONLYGW"> F  </i>
   <i type="int" name="NKREDLFX">     1</i>
   <i type="int" name="NKREDLFY">     1</i>
   <i type="int" name="NKREDLFZ">     1</i>
   <i type="int" name="MAXMEM">  2800</i>
   <i type="int" name="TELESCOPE">     0</i>
   <i type="int" name="TAUPAR">     1</i>
   <i type="int" name="OMEGAPAR">    -1</i>
   <i name="LAMBDA">      1.00000000</i>
  </separator>
  <separator name="External order field" >
   <i name="OFIELD_KAPPA">      0.00000000</i>
   <v name="OFIELD_K">      0.00000000      0.00000000      0.00000000</v>
   <i name="OFIELD_Q6_NEAR">      0.00000000</i>
   <i name="OFIELD_Q6_FAR">      0.00000000</i>
   <i name="OFIELD_A">      0.00000000</i>
  </separator>
 </parameters>
 <atominfo>
  <atoms>     144 </atoms>
  <types>       2 </types>
  <array name="atoms" >
   <dimension dim="1">ion</dimension>
   <field type="string">element</field>
   <field type="int">atomtype</field>
   <set>
    <rc><c>Ag</c><c>   1</c></rc>
    <rc><c>Ag</c><c>   1</c></rc>
    <rc><c>Ag</c><c>   1</c></rc>
    <rc><c>Ag</c><c>   1</c></rc>
    <rc><c>Ag</c><c>   1</c></rc>
    <rc><c>Ag</c><c>   1</c></rc>
    <rc><c>Ag</c><c>   1</c></rc>
    <rc><c>Ag</c><c>   1</c></rc>
    <rc><c>Ag</c><c>   1</c></rc>
    <rc><c>Ag</c><c>   1</c></rc>
    <rc><c>Ag</c><c>   1</c></rc>
    <rc><c>Ag</c><c>   1</c></rc>
    <rc><c>Ag</c><c>   1</c></rc>
    <rc><c>Ag</c><c>   1</c></rc>
    <rc><c>Ag</c><c>   1</c></rc>
    <rc><c>Ag</c><c>   1</c></rc>
    <rc><c>Ag</c><c>   1</c></rc>
    <rc><c>Ag</c><c>   1</c></rc>
    <rc><c>Ag</c><c>   1</c></rc>
    <rc><c>Ag</c><c>   1</c></rc>
    <rc><c>Ag</c><c>   1</c></rc>
    <rc><c>Ag</c><c>   1</c></rc>
    <rc><c>Ag</c><c>   1</c></rc>
    <rc><c>Ag</c><c>   1</c></rc>
    <rc><c>Ag</c><c>   1</c></rc>
    <rc><c>Ag</c><c>   1</c></rc>
    <rc><c>Ag</c><c>   1</c></rc>
    <rc><c>Ag</c><c>   1</c></rc>
    <rc><c>Ag</c><c>   1</c></rc>
    <rc><c>Ag</c><c>   1</c></rc>
    <rc><c>Ag</c><c>   1</c></rc>
    <rc><c>Ag</c><c>   1</c></rc>
    <rc><c>Ag</c><c>   1</c></rc>
    <rc><c>Ag</c><c>   1</c></rc>
    <rc><c>Ag</c><c>   1</c></rc>
    <rc><c>Ag</c><c>   1</c></rc>
    <rc><c>Ag</c><c>   1</c></rc>
    <rc><c>Ag</c><c>   1</c></rc>
    <rc><c>Ag</c><c>   1</c></rc>
    <rc><c>Ag</c><c>   1</c></rc>
    <rc><c>Ag</c><c>   1</c></rc>
    <rc><c>Ag</c><c>   1</c></rc>
    <rc><c>Ag</c><c>   1</c></rc>
    <rc><c>Ag</c><c>   1</c></rc>
    <rc><c>Ag</c><c>   1</c></rc>
    <rc><c>Ag</c><c>   1</c></rc>
    <rc><c>Ag</c><c>   1</c></rc>
    <rc><c>Ag</c><c>   1</c></rc>
    <rc><c>Ag</c><c>   1</c></rc>
    <rc><c>Ag</c><c>   1</c></rc>
    <rc><c>Ag</c><c>   1</c></rc>
    <rc><c>Ag</c><c>   1</c></rc>
    <rc><c>Ag</c><c>   1</c></rc>
    <rc><c>Ag</c><c>   1</c></rc>
    <rc><c>Ag</c><c>   1</c></rc>
    <rc><c>Ag</c><c>   1</c></rc>
    <rc><c>Ag</c><c>   1</c></rc>
    <rc><c>Ag</c><c>   1</c></rc>
    <rc><c>Ag</c><c>   1</c></rc>
    <rc><c>Ag</c><c>   1</c></rc>
    <rc><c>Ag</c><c>   1</c></rc>
    <rc><c>Ag</c><c>   1</c></rc>
    <rc><c>Ag</c><c>   1</c></rc>
    <rc><c>Ag</c><c>   1</c></rc>
    <rc><c>Ag</c><c>   1</c></rc>
    <rc><c>Ag</c><c>   1</c></rc>
    <rc><c>Ag</c><c>   1</c></rc>
    <rc><c>Ag</c><c>   1</c></rc>
    <rc><c>Ag</c><c>   1</c></rc>
    <rc><c>Ag</c><c>   1</c></rc>
    <rc><c>Ag</c><c>   1</c></rc>
    <rc><c>Ag</c><c>   1</c></rc>
    <rc><c>Ag</c><c>   1</c></rc>
    <rc><c>Ag</c><c>   1</c></rc>
    <rc><c>Ag</c><c>   1</c></rc>
    <rc><c>Ag</c><c>   1</c></rc>
    <rc><c>Ag</c><c>   1</c></rc>
    <rc><c>Ag</c><c>   1</c></rc>
    <rc><c>Ag</c><c>   1</c></rc>
    <rc><c>Ag</c><c>   1</c></rc>
    <rc><c>Ag</c><c>   1</c></rc>
    <rc><c>Ag</c><c>   1</c></rc>
    <rc><c>Ag</c><c>   1</c></rc>
    <rc><c>Ag</c><c>   1</c></rc>
    <rc><c>Ag</c><c>   1</c></rc>
    <rc><c>Ag</c><c>   1</c></rc>
    <rc><c>Ag</c><c>   1</c></rc>
    <rc><c>Ag</c><c>   1</c></rc>
    <rc><c>Ag</c><c>   1</c></rc>
    <rc><c>Ag</c><c>   1</c></rc>
    <rc><c>Ag</c><c>   1</c></rc>
    <rc><c>Ag</c><c>   1</c></rc>
    <rc><c>Ag</c><c>   1</c></rc>
    <rc><c>Ag</c><c>   1</c></rc>
    <rc><c>Ag</c><c>   1</c></rc>
    <rc><c>Ag</c><c>   1</c></rc>
    <rc><c>Se</c><c>   2</c></rc>
    <rc><c>Se</c><c>   2</c></rc>
    <rc><c>Se</c><c>   2</c></rc>
    <rc><c>Se</c><c>   2</c></rc>
    <rc><c>Se</c><c>   2</c></rc>
    <rc><c>Se</c><c>   2</c></rc>
    <rc><c>Se</c><c>   2</c></rc>
    <rc><c>Se</c><c>   2</c></rc>
    <rc><c>Se</c><c>   2</c></rc>
    <rc><c>Se</c><c>   2</c></rc>
    <rc><c>Se</c><c>   2</c></rc>
    <rc><c>Se</c><c>   2</c></rc>
    <rc><c>Se</c><c>   2</c></rc>
    <rc><c>Se</c><c>   2</c></rc>
    <rc><c>Se</c><c>   2</c></rc>
    <rc><c>Se</c><c>   2</c></rc>
    <rc><c>Se</c><c>   2</c></rc>
    <rc><c>Se</c><c>   2</c></rc>
    <rc><c>Se</c><c>   2</c></rc>
    <rc><c>Se</c><c>   2</c></rc>
    <rc><c>Se</c><c>   2</c></rc>
    <rc><c>Se</c><c>   2</c></rc>
    <rc><c>Se</c><c>   2</c></rc>
    <rc><c>Se</c><c>   2</c></rc>
    <rc><c>Se</c><c>   2</c></rc>
    <rc><c>Se</c><c>   2</c></rc>
    <rc><c>Se</c><c>   2</c></rc>
    <rc><c>Se</c><c>   2</c></rc>
    <rc><c>Se</c><c>   2</c></rc>
    <rc><c>Se</c><c>   2</c></rc>
    <rc><c>Se</c><c>   2</c></rc>
    <rc><c>Se</c><c>   2</c></rc>
    <rc><c>Se</c><c>   2</c></rc>
    <rc><c>Se</c><c>   2</c></rc>
    <rc><c>Se</c><c>   2</c></rc>
    <rc><c>Se</c><c>   2</c></rc>
    <rc><c>Se</c><c>   2</c></rc>
    <rc><c>Se</c><c>   2</c></rc>
    <rc><c>Se</c><c>   2</c></rc>
    <rc><c>Se</c><c>   2</c></rc>
    <rc><c>Se</c><c>   2</c></rc>
    <rc><c>Se</c><c>   2</c></rc>
    <rc><c>Se</c><c>   2</c></rc>
    <rc><c>Se</c><c>   2</c></rc>
    <rc><c>Se</c><c>   2</c></rc>
    <rc><c>Se</c><c>   2</c></rc>
    <rc><c>Se</c><c>   2</c></rc>
    <rc><c>Se</c><c>   2</c></rc>
   </set>
  </array>
  <array name="atomtypes" >
   <dimension dim="1">type</dimension>
   <field type="int">atomspertype</field>
   <field type="string">element</field>
   <field>mass</field>
   <field>valence</field>
   <field type="string">pseudopotential</field>
   <set>
    <rc><c>  96</c><c>Ag</c><c>    107.86800000</c><c>     11.00000000</c><c>  PAW_PBE Ag 02Apr2005                  </c></rc>
    <rc><c>  48</c><c>Se</c><c>     78.96000000</c><c>      6.00000000</c><c>  PAW_PBE Se 06Sep2000                  </c></rc>
   </set>
  </array>
 </atominfo>
 <structure name="initialpos" >
  <crystal>
   <varray name="basis" >
    <v>      14.01039598       0.00139138       0.00000000 </v>
    <v>      -0.00150196      13.76691092       0.00000000 </v>
    <v>       0.00000000       0.00000000      14.55019386 </v>
   </varray>
   <i name="volume">   2806.43958022 </i>
   <varray name="rec_basis" >
    <v>       0.07137557       0.00000779       0.00000000 </v>
    <v>      -0.00000721       0.07263794       0.00000000 </v>
    <v>       0.00000000       0.00000000       0.06872761 </v>
   </varray>
  </crystal>
  <varray name="positions" >
   <v>       0.42916522       0.17167077       0.33247735 </v>
   <v>       0.92987898       0.17167077       0.33247735 </v>
   <v>       0.42987898       0.67167077       0.33247735 </v>
   <v>       0.92987898       0.67167077       0.33247735 </v>
   <v>       0.42987898       0.17167077       0.66581068 </v>
   <v>       0.92987898       0.17167077       0.66581068 </v>
   <v>       0.42987898       0.67167077       0.66581068 </v>
   <v>       0.92987898       0.67167077       0.66581068 </v>
   <v>       0.42987898       0.17167077       0.99914401 </v>
   <v>       0.92987898       0.17167077       0.99914401 </v>
   <v>       0.42987898       0.67167077       0.99914401 </v>
   <v>       0.92987898       0.67167077       0.99914401 </v>
   <v>       0.07012102       0.32832923       0.33247735 </v>
   <v>       0.57012102       0.32832923       0.33247735 </v>
   <v>       0.07012102       0.82832923       0.33247735 </v>
   <v>       0.57012102       0.82832923       0.33247735 </v>
   <v>       0.07012102       0.32832923       0.66581068 </v>
   <v>       0.57012102       0.32832923       0.66581068 </v>
   <v>       0.07012102       0.82832923       0.66581068 </v>
   <v>       0.57012102       0.82832923       0.66581068 </v>
   <v>       0.07012102       0.32832923       0.99914401 </v>
   <v>       0.57012102       0.32832923       0.99914401 </v>
   <v>       0.07012102       0.82832923       0.99914401 </v>
   <v>       0.57012102       0.82832923       0.99914401 </v>
   <v>       0.32012053       0.42167367       0.05641075 </v>
   <v>       0.82012053       0.42167367       0.05641075 </v>
   <v>       0.32012053       0.92167367       0.05641075 </v>
   <v>       0.82012053       0.92167367       0.05641075 </v>
   <v>       0.32012053       0.42167367       0.38974408 </v>
   <v>       0.82012053       0.42167367       0.38974408 </v>
   <v>       0.32012053       0.92167367       0.38974408 </v>
   <v>       0.82012053       0.92167367       0.38974408 </v>
   <v>       0.32012053       0.42167367       0.72307741 </v>
   <v>       0.82012053       0.42167367       0.72307741 </v>
   <v>       0.32012053       0.92167367       0.72307741 </v>
   <v>       0.82012053       0.92167367       0.72307741 </v>
   <v>       0.17987947       0.07832633       0.05641075 </v>
   <v>       0.67987947       0.07832633       0.05641075 </v>
   <v>       0.17987947       0.57832633       0.05641075 </v>
   <v>       0.67987947       0.57832633       0.05641075 </v>
   <v>       0.17987947       0.07832633       0.38974408 </v>
   <v>       0.67987947       0.07832633       0.38974408 </v>
   <v>       0.17987947       0.57832633       0.38974408 </v>
   <v>       0.67987947       0.57832633       0.38974408 </v>
   <v>       0.17987947       0.07832633       0.72307741 </v>
   <v>       0.67987947       0.07832633       0.72307741 </v>
   <v>       0.17987947       0.57832633       0.72307741 </v>
   <v>       0.67987947       0.57832633       0.72307741 </v>
   <v>       0.17987776       0.32832369       0.16580856 </v>
   <v>       0.67987776       0.32832369       0.16580856 </v>
   <v>       0.17987776       0.82832369       0.16580856 </v>
   <v>       0.67987776       0.82832369       0.16580856 </v>
   <v>       0.17987776       0.32832369       0.49914189 </v>
   <v>       0.67987776       0.32832369       0.49914189 </v>
   <v>       0.17987776       0.82832369       0.49914189 </v>
   <v>       0.67987776       0.82832369       0.49914189 </v>
   <v>       0.17987776       0.32832369       0.83247522 </v>
   <v>       0.67987776       0.32832369       0.83247522 </v>
   <v>       0.17987776       0.82832369       0.83247522 </v>
   <v>       0.67987776       0.82832369       0.83247522 </v>
   <v>       0.32012224       0.17167631       0.16580856 </v>
   <v>       0.82012224       0.17167631       0.16580856 </v>
   <v>       0.32012224       0.67167631       0.16580856 </v>
   <v>       0.82012224       0.67167631       0.16580856 </v>
   <v>       0.32012224       0.17167631       0.49914189 </v>
   <v>       0.82012224       0.17167631       0.49914189 </v>
   <v>       0.32012224       0.67167631       0.49914189 </v>
   <v>       0.82012224       0.67167631       0.49914189 </v>
   <v>       0.32012224       0.17167631       0.83247522 </v>
   <v>       0.82012224       0.17167631       0.83247522 </v>
   <v>       0.32012224       0.67167631       0.83247522 </v>
   <v>       0.82012224       0.67167631       0.83247522 </v>
   <v>       0.42987656       0.42167494       0.22308000 </v>
   <v>       0.92987656       0.42167494       0.22308000 </v>
   <v>       0.42987656       0.92167494       0.22308000 </v>
   <v>       0.92987656       0.92167494       0.22308000 </v>
   <v>       0.42987656       0.42167494       0.55641333 </v>
   <v>       0.92987656       0.42167494       0.55641333 </v>
   <v>       0.42987656       0.92167494       0.55641333 </v>
   <v>       0.92987656       0.92167494       0.55641333 </v>
   <v>       0.42987656       0.42167494       0.88974666 </v>
   <v>       0.92987656       0.42167494       0.88974666 </v>
   <v>       0.42987656       0.92167494       0.88974666 </v>
   <v>       0.92987656       0.92167494       0.88974666 </v>
   <v>       0.07012344       0.07832506       0.22308000 </v>
   <v>       0.57012344       0.07832506       0.22308000 </v>
   <v>       0.07012344       0.57832506       0.22308000 </v>
   <v>       0.57012344       0.57832506       0.22308000 </v>
   <v>       0.07012344       0.07832506       0.55641333 </v>
   <v>       0.57012344       0.07832506       0.55641333 </v>
   <v>       0.07012344       0.57832506       0.55641333 </v>
   <v>       0.57012344       0.57832506       0.55641333 </v>
   <v>       0.07012344       0.07832506       0.88974666 </v>
   <v>       0.57012344       0.07832506       0.88974666 </v>
   <v>       0.07012344       0.57832506       0.88974666 </v>
   <v>       0.57012344       0.57832506       0.88974666 </v>
   <v>       0.00000000       0.00000000       0.05479365 </v>
   <v>       0.50000000       0.00000000       0.05479365 </v>
   <v>       0.00000000       0.50000000       0.05479365 </v>
   <v>       0.50000000       0.50000000       0.05479365 </v>
   <v>       0.00000000       0.00000000       0.38812698 </v>
   <v>       0.50000000       0.00000000       0.38812698 </v>
   <v>       0.00000000       0.50000000       0.38812698 </v>
   <v>       0.50000000       0.50000000       0.38812698 </v>
   <v>       0.00000000       0.00000000       0.72146032 </v>
   <v>       0.50000000       0.00000000       0.72146032 </v>
   <v>       0.00000000       0.50000000       0.72146032 </v>
   <v>       0.50000000       0.50000000       0.72146032 </v>
   <v>       0.25000000       0.00000000       0.22145206 </v>
   <v>       0.75000000       0.00000000       0.22145206 </v>
   <v>       0.25000000       0.50000000       0.22145206 </v>
   <v>       0.75000000       0.50000000       0.22145206 </v>
   <v>       0.25000000       0.00000000       0.55478539 </v>
   <v>       0.75000000       0.00000000       0.55478539 </v>
   <v>       0.25000000       0.50000000       0.55478539 </v>
   <v>       0.75000000       0.50000000       0.55478539 </v>
   <v>       0.25000000       0.00000000       0.88811873 </v>
   <v>       0.75000000       0.00000000       0.88811873 </v>
   <v>       0.25000000       0.50000000       0.88811873 </v>
   <v>       0.75000000       0.50000000       0.88811873 </v>
   <v>       0.00000000       0.25000000       0.16743769 </v>
   <v>       0.50000000       0.25000000       0.16743769 </v>
   <v>       0.00000000       0.75000000       0.16743769 </v>
   <v>       0.50000000       0.75000000       0.16743769 </v>
   <v>       0.00000000       0.25000000       0.50077102 </v>
   <v>       0.50000000       0.25000000       0.50077102 </v>
   <v>       0.00000000       0.75000000       0.50077102 </v>
   <v>       0.50000000       0.75000000       0.50077102 </v>
   <v>       0.00000000       0.25000000       0.83410435 </v>
   <v>       0.50000000       0.25000000       0.83410435 </v>
   <v>       0.00000000       0.75000000       0.83410435 </v>
   <v>       0.50000000       0.75000000       0.83410435 </v>
   <v>       0.25000000       0.25000000       0.00076332 </v>
   <v>       0.75000000       0.25000000       0.00076332 </v>
   <v>       0.25000000       0.75000000       0.00076332 </v>
   <v>       0.75000000       0.75000000       0.00076332 </v>
   <v>       0.25000000       0.25000000       0.33409665 </v>
   <v>       0.75000000       0.25000000       0.33409665 </v>
   <v>       0.25000000       0.75000000       0.33409665 </v>
   <v>       0.75000000       0.75000000       0.33409665 </v>
   <v>       0.25000000       0.25000000       0.66742999 </v>
   <v>       0.75000000       0.25000000       0.66742999 </v>
   <v>       0.25000000       0.75000000       0.66742999 </v>
   <v>       0.75000000       0.75000000       0.66742999 </v>
  </varray>
 </structure>
 <calculation>
  <scstep>
   <time name="dav">  935.47  937.96</time>
   <time name="total">  939.01  941.50</time>
   <energy>
    <i name="alphaZ">   4890.97834259 </i>
    <i name="ewald"> -98843.35803102 </i>
    <i name="hartreedc"> -25788.93160011 </i>
    <i name="XCdc">   -889.86337406 </i>
    <i name="pawpsdc"> 106286.73805879 </i>
    <i name="pawaedc">-101298.59693205 </i>
    <i name="eentropy">     -0.04325212 </i>
    <i name="bandstr">  14366.16133026 </i>
    <i name="atom"> 111881.97810035 </i>
    <i name="e_fr_energy">  10605.06264263 </i>
    <i name="e_wo_entrp">  10605.10589474 </i>
    <i name="e_0_energy">  10605.08426868 </i>
   </energy>
  </scstep>
  <scstep>
   <time name="dav">  966.33  968.90</time>
   <time name="total">  966.34  968.91</time>
   <energy>
    <i name="e_fr_energy">    151.05535534 </i>
    <i name="e_wo_entrp">    151.06760782 </i>
    <i name="e_0_energy">    151.06148158 </i>
   </energy>
  </scstep>
  <scstep>
   <time name="dav"> 1019.87 1022.49</time>
   <time name="total"> 1019.87 1022.50</time>
   <energy>
    <i name="e_fr_energy">   -517.96995731 </i>
    <i name="e_wo_entrp">   -517.96382310 </i>
    <i name="e_0_energy">   -517.96689020 </i>
   </energy>
  </scstep>
  <scstep>
   <time name="dav">  990.63  993.24</time>
   <time name="total">  990.64  993.25</time>
   <energy>
    <i name="e_fr_energy">   -535.41755857 </i>
    <i name="e_wo_entrp">   -535.41209960 </i>
    <i name="e_0_energy">   -535.41482909 </i>
   </energy>
  </scstep>
  <scstep>
   <time name="dav"> 1007.47 1009.95</time>
   <time name="total"> 1021.78 1024.30</time>
   <energy>
    <i name="e_fr_energy">   -535.67097803 </i>
    <i name="e_wo_entrp">   -535.66551116 </i>
    <i name="e_0_energy">   -535.66824459 </i>
   </energy>
  </scstep>
  <scstep>
   <time name="dav">  977.08  979.56</time>
   <time name="total">  994.69  997.21</time>
   <energy>
    <i name="e_fr_energy">   -504.98313003 </i>
    <i name="e_wo_entrp">   -504.96765379 </i>
    <i name="e_0_energy">   -504.97539191 </i>
   </energy>
  </scstep>
  <scstep>
   <time name="dav">  963.65  966.05</time>
   <time name="total">  981.68  984.13</time>
   <energy>
    <i name="e_fr_energy">   -505.65761699 </i>
    <i name="e_wo_entrp">   -505.64186701 </i>
    <i name="e_0_energy">   -505.64974200 </i>
   </energy>
  </scstep>
  <scstep>
   <time name="dav">  989.06  991.57</time>
   <time name="total"> 1006.74 1009.29</time>
   <energy>
    <i name="e_fr_energy">   -505.18196663 </i>
    <i name="e_wo_entrp">   -505.16736356 </i>
    <i name="e_0_energy">   -505.17466509 </i>
   </energy>
  </scstep>
  <scstep>
   <time name="dav">  973.81  976.22</time>
   <time name="total">  991.63  994.08</time>
   <energy>
    <i name="e_fr_energy">   -505.12628993 </i>
    <i name="e_wo_entrp">   -505.11107550 </i>
    <i name="e_0_energy">   -505.11868271 </i>
   </energy>
  </scstep>
  <scstep>
   <time name="dav">  977.04  979.47</time>
   <time name="total">  995.25  997.75</time>
   <energy>
    <i name="e_fr_energy">   -505.12841473 </i>
    <i name="e_wo_entrp">   -505.11314252 </i>
    <i name="e_0_energy">   -505.12077862 </i>
   </energy>
  </scstep>
  <scstep>
   <time name="dav">  991.94  994.39</time>
   <time name="total"> 1009.40 1011.92</time>
   <energy>
    <i name="e_fr_energy">   -505.12829121 </i>
    <i name="e_wo_entrp">   -505.11308718 </i>
    <i name="e_0_energy">   -505.12068919 </i>
   </energy>
  </scstep>
  <scstep>
   <time name="dav">  977.66  980.06</time>
   <time name="total">  995.06  997.51</time>
   <energy>
    <i name="e_fr_energy">   -505.12824883 </i>
    <i name="e_wo_entrp">   -505.11302448 </i>
    <i name="e_0_energy">   -505.12063666 </i>
   </energy>
  </scstep>
  <scstep>
   <time name="dav"> 1028.32 1030.85</time>
   <time name="total"> 1045.70 1048.27</time>
   <energy>
    <i name="e_fr_energy">   -505.12824880 </i>
    <i name="e_wo_entrp">   -505.11302743 </i>
    <i name="e_0_energy">   -505.12063812 </i>
   </energy>
  </scstep>
  <scstep>
   <time name="dav">  977.90  980.36</time>
   <time name="total">  995.49  997.99</time>
   <energy>
    <i name="e_fr_energy">   -505.12824767 </i>
    <i name="e_wo_entrp">   -505.11302736 </i>
    <i name="e_0_energy">   -505.12063751 </i>
   </energy>
  </scstep>
  <scstep>
   <time name="dav"> 1009.74 1012.24</time>
   <time name="total"> 1026.99 1029.52</time>
   <energy>
    <i name="e_fr_energy">   -505.12824615 </i>
    <i name="e_wo_entrp">   -505.11302608 </i>
    <i name="e_0_energy">   -505.12063611 </i>
   </energy>
  </scstep>
  <scstep>
   <time name="dav">  925.52  927.84</time>
   <time name="total">  945.38  947.74</time>
   <energy>
    <i name="e_fr_energy">   -505.12824618 </i>
    <i name="e_wo_entrp">   -505.11302629 </i>
    <i name="e_0_energy">   -505.12063623 </i>
   </energy>
  </scstep>
  <scstep>
   <time name="dav">  430.40  431.44</time>
   <time name="total">  445.29  446.38</time>
   <energy>
    <i name="e_fr_energy">   -505.12824620 </i>
    <i name="e_wo_entrp">   -505.11302623 </i>
    <i name="e_0_energy">   -505.12063621 </i>
   </energy>
  </scstep>
  <scstep>
   <time name="dav">  548.53  549.78</time>
   <time name="total">  566.15  567.44</time>
   <energy>
    <i name="e_fr_energy">   -505.12824618 </i>
    <i name="e_wo_entrp">   -505.11302619 </i>
    <i name="e_0_energy">   -505.12063619 </i>
   </energy>
  </scstep>
  <scstep>
   <time name="dav">  601.72  603.04</time>
   <time name="total">  605.14  606.47</time>
   <energy>
    <i name="alphaZ">   4890.97834259 </i>
    <i name="ewald"> -98843.35803102 </i>
    <i name="hartreedc"> -24657.76357861 </i>
    <i name="XCdc">   -922.44974903 </i>
    <i name="pawpsdc"> 122252.44302481 </i>
    <i name="pawaedc">-117444.69876607 </i>
    <i name="eentropy">     -0.01522000 </i>
    <i name="bandstr">   2337.75763082 </i>
    <i name="atom"> 111881.97810035 </i>
    <i name="e_fr_energy">   -505.12824618 </i>
    <i name="e_wo_entrp">   -505.11302618 </i>
    <i name="e_0_energy">   -505.12063618 </i>
   </energy>
  </scstep>
  <structure>
   <crystal>
    <varray name="basis" >
     <v>      14.01039598       0.00139138       0.00000000 </v>
     <v>      -0.00150196      13.76691092       0.00000000 </v>
     <v>       0.00000000       0.00000000      14.55019386 </v>
    </varray>
    <i name="volume">   2806.43958022 </i>
    <varray name="rec_basis" >
     <v>       0.07137557       0.00000779       0.00000000 </v>
     <v>      -0.00000721       0.07263794       0.00000000 </v>
     <v>       0.00000000       0.00000000       0.06872761 </v>
    </varray>
   </crystal>
   <varray name="positions" >
    <v>       0.42916522       0.17167077       0.33247735 </v>
    <v>       0.92987898       0.17167077       0.33247735 </v>
    <v>       0.42987898       0.67167077       0.33247735 </v>
    <v>       0.92987898       0.67167077       0.33247735 </v>
    <v>       0.42987898       0.17167077       0.66581068 </v>
    <v>       0.92987898       0.17167077       0.66581068 </v>
    <v>       0.42987898       0.67167077       0.66581068 </v>
    <v>       0.92987898       0.67167077       0.66581068 </v>
    <v>       0.42987898       0.17167077       0.99914401 </v>
    <v>       0.92987898       0.17167077       0.99914401 </v>
    <v>       0.42987898       0.67167077       0.99914401 </v>
    <v>       0.92987898       0.67167077       0.99914401 </v>
    <v>       0.07012102       0.32832923       0.33247735 </v>
    <v>       0.57012102       0.32832923       0.33247735 </v>
    <v>       0.07012102       0.82832923       0.33247735 </v>
    <v>       0.57012102       0.82832923       0.33247735 </v>
    <v>       0.07012102       0.32832923       0.66581068 </v>
    <v>       0.57012102       0.32832923       0.66581068 </v>
    <v>       0.07012102       0.82832923       0.66581068 </v>
    <v>       0.57012102       0.82832923       0.66581068 </v>
    <v>       0.07012102       0.32832923       0.99914401 </v>
    <v>       0.57012102       0.32832923       0.99914401 </v>
    <v>       0.07012102       0.82832923       0.99914401 </v>
    <v>       0.57012102       0.82832923       0.99914401 </v>
    <v>       0.32012053       0.42167367       0.05641075 </v>
    <v>       0.82012053       0.42167367       0.05641075 </v>
    <v>       0.32012053       0.92167367       0.05641075 </v>
    <v>       0.82012053       0.92167367       0.05641075 </v>
    <v>       0.32012053       0.42167367       0.38974408 </v>
    <v>       0.82012053       0.42167367       0.38974408 </v>
    <v>       0.32012053       0.92167367       0.38974408 </v>
    <v>       0.82012053       0.92167367       0.38974408 </v>
    <v>       0.32012053       0.42167367       0.72307741 </v>
    <v>       0.82012053       0.42167367       0.72307741 </v>
    <v>       0.32012053       0.92167367       0.72307741 </v>
    <v>       0.82012053       0.92167367       0.72307741 </v>
    <v>       0.17987947       0.07832633       0.05641075 </v>
    <v>       0.67987947       0.07832633       0.05641075 </v>
    <v>       0.17987947       0.57832633       0.05641075 </v>
    <v>       0.67987947       0.57832633       0.05641075 </v>
    <v>       0.17987947       0.07832633       0.38974408 </v>
    <v>       0.67987947       0.07832633       0.38974408 </v>
    <v>       0.17987947       0.57832633       0.38974408 </v>
    <v>       0.67987947       0.57832633       0.38974408 </v>
    <v>       0.17987947       0.07832633       0.72307741 </v>
    <v>       0.67987947       0.07832633       0.72307741 </v>
    <v>       0.17987947       0.57832633       0.72307741 </v>
    <v>       0.67987947       0.57832633       0.72307741 </v>
    <v>       0.17987776       0.32832369       0.16580856 </v>
    <v>       0.67987776       0.32832369       0.16580856 </v>
    <v>       0.17987776       0.82832369       0.16580856 </v>
    <v>       0.67987776       0.82832369       0.16580856 </v>
    <v>       0.17987776       0.32832369       0.49914189 </v>
    <v>       0.67987776       0.32832369       0.49914189 </v>
    <v>       0.17987776       0.82832369       0.49914189 </v>
    <v>       0.67987776       0.82832369       0.49914189 </v>
    <v>       0.17987776       0.32832369       0.83247522 </v>
    <v>       0.67987776       0.32832369       0.83247522 </v>
    <v>       0.17987776       0.82832369       0.83247522 </v>
    <v>       0.67987776       0.82832369       0.83247522 </v>
    <v>       0.32012224       0.17167631       0.16580856 </v>
    <v>       0.82012224       0.17167631       0.16580856 </v>
    <v>       0.32012224       0.67167631       0.16580856 </v>
    <v>       0.82012224       0.67167631       0.16580856 </v>
    <v>       0.32012224       0.17167631       0.49914189 </v>
    <v>       0.82012224       0.17167631       0.49914189 </v>
    <v>       0.32012224       0.67167631       0.49914189 </v>
    <v>       0.82012224       0.67167631       0.49914189 </v>
    <v>       0.32012224       0.17167631       0.83247522 </v>
    <v>       0.82012224       0.17167631       0.83247522 </v>
    <v>       0.32012224       0.67167631       0.83247522 </v>
    <v>       0.82012224       0.67167631       0.83247522 </v>
    <v>       0.42987656       0.42167494       0.22308000 </v>
    <v>       0.92987656       0.42167494       0.22308000 </v>
    <v>       0.42987656       0.92167494       0.22308000 </v>
    <v>       0.92987656       0.92167494       0.22308000 </v>
    <v>       0.42987656       0.42167494       0.55641333 </v>
    <v>       0.92987656       0.42167494       0.55641333 </v>
    <v>       0.42987656       0.92167494       0.55641333 </v>
    <v>       0.92987656       0.92167494       0.55641333 </v>
    <v>       0.42987656       0.42167494       0.88974666 </v>
    <v>       0.92987656       0.42167494       0.88974666 </v>
    <v>       0.42987656       0.92167494       0.88974666 </v>
    <v>       0.92987656       0.92167494       0.88974666 </v>
    <v>       0.07012344       0.07832506       0.22308000 </v>
    <v>       0.57012344       0.07832506       0.22308000 </v>
    <v>       0.07012344       0.57832506       0.22308000 </v>
    <v>       0.57012344       0.57832506       0.22308000 </v>
    <v>       0.07012344       0.07832506       0.55641333 </v>
    <v>       0.57012344       0.07832506       0.55641333 </v>
    <v>       0.07012344       0.57832506       0.55641333 </v>
    <v>       0.57012344       0.57832506       0.55641333 </v>
    <v>       0.07012344       0.07832506       0.88974666 </v>
    <v>       0.57012344       0.07832506       0.88974666 </v>
    <v>       0.07012344       0.57832506       0.88974666 </v>
    <v>       0.57012344       0.57832506       0.88974666 </v>
    <v>       0.00000000       0.00000000       0.05479365 </v>
    <v>       0.50000000       0.00000000       0.05479365 </v>
    <v>       0.00000000       0.50000000       0.05479365 </v>
    <v>       0.50000000       0.50000000       0.05479365 </v>
    <v>       0.00000000       0.00000000       0.38812698 </v>
    <v>       0.50000000       0.00000000       0.38812698 </v>
    <v>       0.00000000       0.50000000       0.38812698 </v>
    <v>       0.50000000       0.50000000       0.38812698 </v>
    <v>       0.00000000       0.00000000       0.72146032 </v>
    <v>       0.50000000       0.00000000       0.72146032 </v>
    <v>       0.00000000       0.50000000       0.72146032 </v>
    <v>       0.50000000       0.50000000       0.72146032 </v>
    <v>       0.25000000       0.00000000       0.22145206 </v>
    <v>       0.75000000       0.00000000       0.22145206 </v>
    <v>       0.25000000       0.50000000       0.22145206 </v>
    <v>       0.75000000       0.50000000       0.22145206 </v>
    <v>       0.25000000       0.00000000       0.55478539 </v>
    <v>       0.75000000       0.00000000       0.55478539 </v>
    <v>       0.25000000       0.50000000       0.55478539 </v>
    <v>       0.75000000       0.50000000       0.55478539 </v>
    <v>       0.25000000       0.00000000       0.88811873 </v>
    <v>       0.75000000       0.00000000       0.88811873 </v>
    <v>       0.25000000       0.50000000       0.88811873 </v>
    <v>       0.75000000       0.50000000       0.88811873 </v>
    <v>       0.00000000       0.25000000       0.16743769 </v>
    <v>       0.50000000       0.25000000       0.16743769 </v>
    <v>       0.00000000       0.75000000       0.16743769 </v>
    <v>       0.50000000       0.75000000       0.16743769 </v>
    <v>       0.00000000       0.25000000       0.50077102 </v>
    <v>       0.50000000       0.25000000       0.50077102 </v>
    <v>       0.00000000       0.75000000       0.50077102 </v>
    <v>       0.50000000       0.75000000       0.50077102 </v>
    <v>       0.00000000       0.25000000       0.83410435 </v>
    <v>       0.50000000       0.25000000       0.83410435 </v>
    <v>       0.00000000       0.75000000       0.83410435 </v>
    <v>       0.50000000       0.75000000       0.83410435 </v>
    <v>       0.25000000       0.25000000       0.00076332 </v>
    <v>       0.75000000       0.25000000       0.00076332 </v>
    <v>       0.25000000       0.75000000       0.00076332 </v>
    <v>       0.75000000       0.75000000       0.00076332 </v>
    <v>       0.25000000       0.25000000       0.33409665 </v>
    <v>       0.75000000       0.25000000       0.33409665 </v>
    <v>       0.25000000       0.75000000       0.33409665 </v>
    <v>       0.75000000       0.75000000       0.33409665 </v>
    <v>       0.25000000       0.25000000       0.66742999 </v>
    <v>       0.75000000       0.25000000       0.66742999 </v>
    <v>       0.25000000       0.75000000       0.66742999 </v>
    <v>       0.75000000       0.75000000       0.66742999 </v>
   </varray>
  </structure>
  <varray name="forces" >
   <v>       0.03314117      -0.01104498      -0.00190127 </v>
   <v>      -0.00021886       0.00000655      -0.00002613 </v>
   <v>       0.00001052       0.00002379       0.00002586 </v>
   <v>      -0.00005476       0.00012971      -0.00005421 </v>
   <v>       0.00035268       0.00037499      -0.00015950 </v>
   <v>      -0.00017438       0.00002595       0.00010703 </v>
   <v>       0.00001528       0.00002701      -0.00004371 </v>
   <v>      -0.00004320       0.00006268      -0.00002618 </v>
   <v>       0.00035283       0.00039769       0.00013808 </v>
   <v>      -0.00017436       0.00001284      -0.00013661 </v>
   <v>       0.00001545      -0.00001943       0.00000949 </v>
   <v>      -0.00004324       0.00006961      -0.00004787 </v>
   <v>      -0.00246283       0.00052799      -0.00014761 </v>
   <v>      -0.00478232      -0.00597355      -0.00027072 </v>
   <v>      -0.00000265      -0.00009006      -0.00007132 </v>
   <v>      -0.00025087       0.00027923       0.00013096 </v>
   <v>      -0.00007009      -0.00006665       0.00006686 </v>
   <v>      -0.00048155      -0.00055349      -0.00070047 </v>
   <v>       0.00000508      -0.00007898      -0.00004498 </v>
   <v>       0.00003129      -0.00010767      -0.00003282 </v>
   <v>      -0.00007015      -0.00005591      -0.00012072 </v>
   <v>      -0.00048244      -0.00061649       0.00070377 </v>
   <v>       0.00000496      -0.00008080      -0.00004409 </v>
   <v>       0.00003117      -0.00005141      -0.00004076 </v>
   <v>       0.00011591       0.00003481       0.00004005 </v>
   <v>      -0.00004310      -0.00000535       0.00004035 </v>
   <v>       0.00011493       0.00000091      -0.00001274 </v>
   <v>      -0.00004298       0.00005228       0.00009176 </v>
   <v>       0.00015980       0.00090559       0.00039287 </v>
   <v>      -0.00009874      -0.00000124       0.00009232 </v>
   <v>       0.00015960      -0.00008954       0.00009089 </v>
   <v>      -0.00009898       0.00007208       0.00003630 </v>
   <v>       0.00006020       0.00005222       0.00013177 </v>
   <v>      -0.00003640      -0.00001215       0.00005407 </v>
   <v>       0.00006013       0.00003009       0.00006480 </v>
   <v>      -0.00003618       0.00005291       0.00002809 </v>
   <v>      -0.00005394      -0.00005179       0.00005853 </v>
   <v>      -0.00005281      -0.00002304       0.00010204 </v>
   <v>      -0.00006697       0.00001435       0.00000303 </v>
   <v>      -0.00006692      -0.00002842       0.00006021 </v>
   <v>      -0.00055476      -0.00102253       0.00031897 </v>
   <v>      -0.00055390      -0.00007839      -0.00004530 </v>
   <v>      -0.00003063       0.00004432       0.00007869 </v>
   <v>      -0.00003036      -0.00004182       0.00003944 </v>
   <v>      -0.00006747      -0.00003554       0.00008394 </v>
   <v>      -0.00006742      -0.00002444       0.00004230 </v>
   <v>      -0.00007325       0.00002616       0.00009158 </v>
   <v>      -0.00007299      -0.00000800       0.00008097 </v>
   <v>      -0.00041067       0.00041288      -0.00052806 </v>
   <v>      -0.00044546      -0.00001826       0.00011031 </v>
   <v>      -0.00004937      -0.00008706      -0.00004359 </v>
   <v>      -0.00003921       0.00005197       0.00000205 </v>
   <v>      -0.00044802       0.00033755       0.00085369 </v>
   <v>      -0.00040874      -0.00007852      -0.00018313 </v>
   <v>      -0.00003922      -0.00003340       0.00000845 </v>
   <v>      -0.00004908       0.00005604      -0.00002645 </v>
   <v>      -0.00013937       0.00011132       0.00000584 </v>
   <v>      -0.00013831       0.00000820      -0.00000295 </v>
   <v>      -0.00002706       0.00001610      -0.00001334 </v>
   <v>      -0.00002681      -0.00000342      -0.00001038 </v>
   <v>      -0.00242340      -0.00038629      -0.00794460 </v>
   <v>      -0.00023508      -0.00005315       0.00002386 </v>
   <v>       0.00006818       0.00014437      -0.00006279 </v>
   <v>      -0.00004082      -0.00001712      -0.00000172 </v>
   <v>      -0.00242375      -0.00059701       0.00791209 </v>
   <v>      -0.00023494      -0.00000908      -0.00010849 </v>
   <v>       0.00006773       0.00005675      -0.00001610 </v>
   <v>      -0.00004076       0.00000007      -0.00001106 </v>
   <v>       0.00014936      -0.00006063      -0.00002276 </v>
   <v>      -0.00007232       0.00002115      -0.00001812 </v>
   <v>       0.00003929      -0.00000031      -0.00002197 </v>
   <v>      -0.00002758      -0.00001013      -0.00000631 </v>
   <v>       0.00046320      -0.00020216      -0.00002273 </v>
   <v>      -0.00013367       0.00014447      -0.00007527 </v>
   <v>       0.00046337       0.00014948       0.00013982 </v>
   <v>      -0.00013393       0.00002513      -0.00000233 </v>
   <v>       0.00011958      -0.00034970      -0.00002942 </v>
   <v>      -0.00008081       0.00007967       0.00003312 </v>
   <v>       0.00011972       0.00010523      -0.00012031 </v>
   <v>      -0.00008034      -0.00000669       0.00003792 </v>
   <v>       0.00003930      -0.00000893       0.00000080 </v>
   <v>      -0.00003831       0.00001009       0.00003366 </v>
   <v>       0.00003900       0.00002835       0.00005502 </v>
   <v>      -0.00003825       0.00000626       0.00003413 </v>
   <v>      -0.00003913      -0.00010800       0.00001249 </v>
   <v>      -0.00809420       0.00560384       0.00682762 </v>
   <v>      -0.00011557       0.00007426      -0.00001235 </v>
   <v>      -0.00000060      -0.00002315       0.00002972 </v>
   <v>      -0.00012895      -0.00006999       0.00009595 </v>
   <v>      -0.00059472       0.00048068      -0.00082230 </v>
   <v>      -0.00007685      -0.00000109       0.00004322 </v>
   <v>      -0.00011875       0.00002029       0.00002514 </v>
   <v>      -0.00004207      -0.00000645      -0.00000155 </v>
   <v>      -0.00004951       0.00002010       0.00003714 </v>
   <v>      -0.00004720      -0.00000667       0.00001180 </v>
   <v>      -0.00002270      -0.00002787       0.00001548 </v>
   <v>       0.00004841       0.00012231      -0.00011967 </v>
   <v>      -0.00017054      -0.00005025      -0.00007916 </v>
   <v>       0.00008104       0.00004897      -0.00004963 </v>
   <v>      -0.00013004       0.00041418      -0.00018274 </v>
   <v>       0.00016361       0.00008330      -0.00008261 </v>
   <v>      -0.00121972       0.00968266      -0.00465359 </v>
   <v>       0.00030476      -0.00002305      -0.00000953 </v>
   <v>      -0.00008336       0.00001179      -0.00023343 </v>
   <v>       0.00011309       0.00007347      -0.00017713 </v>
   <v>      -0.00002471       0.00001902      -0.00023027 </v>
   <v>       0.00009867       0.00005067      -0.00011177 </v>
   <v>       0.00010332       0.00014989       0.00004893 </v>
   <v>      -0.00054269      -0.00056910      -0.00028402 </v>
   <v>       0.00020849      -0.00013773       0.00006354 </v>
   <v>      -0.00003813      -0.00060299       0.00025132 </v>
   <v>       0.00010009      -0.00002215      -0.00003418 </v>
   <v>      -0.00008291      -0.00029982       0.00032513 </v>
   <v>       0.00016397      -0.00008383       0.00004247 </v>
   <v>       0.00010289      -0.00019250      -0.00020006 </v>
   <v>       0.00010956       0.00000002      -0.00006008 </v>
   <v>      -0.00001340      -0.00004982      -0.00003773 </v>
   <v>       0.00003754      -0.00007290       0.00002795 </v>
   <v>       0.00005016      -0.00012412      -0.00001428 </v>
   <v>       0.00009917      -0.00005614      -0.00000263 </v>
   <v>       0.00077936       0.00039744       0.00032991 </v>
   <v>       0.00152857      -0.00221724       0.00193364 </v>
   <v>       0.00005354       0.00001317      -0.00000777 </v>
   <v>       0.00001055       0.00001543      -0.00000988 </v>
   <v>       0.00086155       0.00029768      -0.00038551 </v>
   <v>       0.00051515      -0.00044446      -0.00165278 </v>
   <v>       0.00000086       0.00004097      -0.00005390 </v>
   <v>       0.00000113      -0.00026200       0.00018051 </v>
   <v>       0.00021638       0.00010322      -0.00004278 </v>
   <v>       0.00011454       0.00010076      -0.00001711 </v>
   <v>       0.00000247       0.00005125      -0.00002515 </v>
   <v>      -0.00005013       0.00006497      -0.00005851 </v>
   <v>       0.00006108      -0.00017168       0.00044746 </v>
   <v>       0.00043940      -0.00019180       0.00007187 </v>
   <v>       0.00001600      -0.00004383       0.00014161 </v>
   <v>       0.00006033      -0.00004363       0.00004722 </v>
   <v>      -0.01170668       0.00599066      -0.00058923 </v>
   <v>      -0.00018519      -0.00033284       0.00009265 </v>
   <v>      -0.00001989      -0.00008014      -0.00002517 </v>
   <v>      -0.00000116      -0.00006097       0.00008652 </v>
   <v>       0.00000873      -0.00020274      -0.00032612 </v>
   <v>       0.00046912      -0.00013187       0.00010102 </v>
   <v>       0.00003048      -0.00008276      -0.00001184 </v>
   <v>       0.00002986      -0.00004269       0.00005721 </v>
  </varray>
  <varray name="stress" >
   <v>      -0.15458122      -0.00546239       0.00453348 </v>
   <v>      -0.00546226      -0.17386956       0.00133597 </v>
   <v>       0.00453348       0.00133594      -0.15377322 </v>
  </varray>
  <energy>
   <i name="e_fr_energy">   -505.12824618 </i>
   <i name="e_wo_entrp">   -505.12063618 </i>
   <i name="e_0_energy">     -0.01522000 </i>
  </energy>
  <time name="totalsc">19058.3219106.28</time>
  <eigenvalues>
   <array>
    <dimension dim="1">band</dimension>
    <dimension dim="2">kpoint</dimension>
    <dimension dim="3">spin</dimension>
    <field>eigene</field>
    <field>occ</field>
    <set>
     <set comment="spin 1">
      <set comment="kpoint 1">
       <r>   -7.4639    1.0000 </r>
       <r>   -7.2297    1.0000 </r>
       <r>   -7.2294    1.0000 </r>
       <r>   -7.2160    1.0000 </r>
       <r>   -7.2153    1.0000 </r>
       <r>   -7.1644    1.0000 </r>
       <r>   -7.1642    1.0000 </r>
       <r>   -7.0701    1.0000 </r>
       <r>   -7.0695    1.0000 </r>
       <r>   -7.0693    1.0000 </r>
       <r>   -7.0691    1.0000 </r>
       <r>   -7.0095    1.0000 </r>
       <r>   -7.0091    1.0000 </r>
       <r>   -7.0089    1.0000 </r>
       <r>   -7.0088    1.0000 </r>
       <r>   -6.9944    1.0000 </r>
       <r>   -6.9939    1.0000 </r>
       <r>   -6.9936    1.0000 </r>
       <r>   -6.9934    1.0000 </r>
       <r>   -6.9476    1.0000 </r>
       <r>   -6.9353    1.0000 </r>
       <r>   -6.9349    1.0000 </r>
       <r>   -6.9201    1.0000 </r>
       <r>   -6.9192    1.0000 </r>
       <r>   -6.9191    1.0000 </r>
       <r>   -6.9191    1.0000 </r>
       <r>   -6.9190    1.0000 </r>
       <r>   -6.9188    1.0000 </r>
       <r>   -6.9186    1.0000 </r>
       <r>   -6.9186    1.0000 </r>
       <r>   -6.8371    1.0000 </r>
       <r>   -6.8367    1.0000 </r>
       <r>   -6.8364    1.0000 </r>
       <r>   -6.8364    1.0000 </r>
       <r>   -6.8238    1.0000 </r>
       <r>   -6.8181    1.0000 </r>
       <r>   -6.8179    1.0000 </r>
       <r>   -6.7728    1.0000 </r>
       <r>   -6.7725    1.0000 </r>
       <r>   -6.7674    1.0000 </r>
       <r>   -6.7669    1.0000 </r>
       <r>   -6.7667    1.0000 </r>
       <r>   -6.7665    1.0000 </r>
       <r>   -6.7550    1.0000 </r>
       <r>   -6.7544    1.0000 </r>
       <r>   -6.7402    1.0000 </r>
       <r>   -6.7397    1.0000 </r>
       <r>   -6.6844    1.0000 </r>
       <r>   -0.3462    1.0000 </r>
       <r>    0.0939    1.0000 </r>
       <r>    0.0940    1.0000 </r>
       <r>    0.0942    1.0000 </r>
       <r>    0.0943    1.0000 </r>
       <r>    0.0943    1.0000 </r>
       <r>    0.0944    1.0000 </r>
       <r>    0.0945    1.0000 </r>
       <r>    0.0945    1.0000 </r>
       <r>    0.1077    1.0000 </r>
       <r>    0.1078    1.0000 </r>
       <r>    0.1079    1.0000 </r>
       <r>    0.1079    1.0000 </r>
       <r>    0.1516    1.0000 </r>
       <r>    0.1522    1.0000 </r>
       <r>    0.1524    1.0000 </r>
       <r>    0.1525    1.0000 </r>
       <r>    0.1578    1.0000 </r>
       <r>    0.1583    1.0000 </r>
       <r>    0.1593    1.0000 </r>
       <r>    0.1600    1.0000 </r>
       <r>    0.2007    1.0000 </r>
       <r>    0.2009    1.0000 </r>
       <r>    0.2011    1.0000 </r>
       <r>    0.2012    1.0000 </r>
       <r>    0.2364    1.0000 </r>
       <r>    0.2368    1.0000 </r>
       <r>    0.2566    1.0000 </r>
       <r>    0.2569    1.0000 </r>
       <r>    0.2819    1.0000 </r>
       <r>    0.3007    1.0000 </r>
       <r>    0.3010    1.0000 </r>
       <r>    0.3228    1.0000 </r>
       <r>    0.4470    1.0000 </r>
       <r>    0.4474    1.0000 </r>
       <r>    0.4507    1.0000 </r>
       <r>    0.4510    1.0000 </r>
       <r>    0.4571    1.0000 </r>
       <r>    0.4574    1.0000 </r>
       <r>    0.4652    1.0000 </r>
       <r>    0.4656    1.0000 </r>
       <r>    0.4658    1.0000 </r>
       <r>    0.4662    1.0000 </r>
       <r>    0.4699    1.0000 </r>
       <r>    0.4699    1.0000 </r>
       <r>    0.4702    1.0000 </r>
       <r>    0.4706    1.0000 </r>
       <r>    0.5111    1.0000 </r>
       <r>    0.5115    1.0000 </r>
       <r>    0.5258    1.0000 </r>
       <r>    0.5263    1.0000 </r>
       <r>    0.5265    1.0000 </r>
       <r>    0.5267    1.0000 </r>
       <r>    0.5973    1.0000 </r>
       <r>    0.6018    1.0000 </r>
       <r>    0.6548    1.0000 </r>
       <r>    0.6549    1.0000 </r>
       <r>    0.6551    1.0000 </r>
       <r>    0.6552    1.0000 </r>
       <r>    0.6616    1.0000 </r>
       <r>    0.6619    1.0000 </r>
       <r>    0.6878    1.0000 </r>
       <r>    0.6880    1.0000 </r>
       <r>    0.7014    1.0000 </r>
       <r>    0.7019    1.0000 </r>
       <r>    0.7019    1.0000 </r>
       <r>    0.7022    1.0000 </r>
       <r>    0.7205    1.0000 </r>
       <r>    0.7212    1.0000 </r>
       <r>    0.7410    1.0000 </r>
       <r>    0.7413    1.0000 </r>
       <r>    0.7485    1.0000 </r>
       <r>    0.8022    1.0000 </r>
       <r>    0.8141    1.0000 </r>
       <r>    0.8142    1.0000 </r>
       <r>    0.8145    1.0000 </r>
       <r>    0.8147    1.0000 </r>
       <r>    0.8301    1.0000 </r>
       <r>    0.8303    1.0000 </r>
       <r>    0.8306    1.0000 </r>
       <r>    0.8310    1.0000 </r>
       <r>    0.8514    1.0000 </r>
       <r>    0.8517    1.0000 </r>
       <r>    0.8520    1.0000 </r>
       <r>    0.8521    1.0000 </r>
       <r>    0.8521    1.0000 </r>
       <r>    0.8522    1.0000 </r>
       <r>    0.8523    1.0000 </r>
       <r>    0.8527    1.0000 </r>
       <r>    0.8952    1.0000 </r>
       <r>    0.8977    1.0000 </r>
       <r>    0.8981    1.0000 </r>
       <r>    0.8991    1.0000 </r>
       <r>    0.8994    1.0000 </r>
       <r>    0.8995    1.0000 </r>
       <r>    0.8995    1.0000 </r>
       <r>    0.9206    1.0000 </r>
       <r>    0.9458    1.0000 </r>
       <r>    0.9463    1.0000 </r>
       <r>    1.0706    1.0000 </r>
       <r>    1.0708    1.0000 </r>
       <r>    1.0709    1.0000 </r>
       <r>    1.0711    1.0000 </r>
       <r>    1.0842    1.0000 </r>
       <r>    1.0846    1.0000 </r>
       <r>    1.0848    1.0000 </r>
       <r>    1.0849    1.0000 </r>
       <r>    1.0851    1.0000 </r>
       <r>    1.0853    1.0000 </r>
       <r>    1.1009    1.0000 </r>
       <r>    1.1010    1.0000 </r>
       <r>    1.1457    1.0000 </r>
       <r>    1.1459    1.0000 </r>
       <r>    1.1460    1.0000 </r>
       <r>    1.1461    1.0000 </r>
       <r>    1.1616    1.0000 </r>
       <r>    1.1619    1.0000 </r>
       <r>    1.1620    1.0000 </r>
       <r>    1.1622    1.0000 </r>
       <r>    1.1755    1.0000 </r>
       <r>    1.1760    1.0000 </r>
       <r>    1.1996    1.0000 </r>
       <r>    1.2241    1.0000 </r>
       <r>    1.2243    1.0000 </r>
       <r>    1.2295    1.0000 </r>
       <r>    1.2298    1.0000 </r>
       <r>    1.2298    1.0000 </r>
       <r>    1.2299    1.0000 </r>
       <r>    1.2300    1.0000 </r>
       <r>    1.2300    1.0000 </r>
       <r>    1.2301    1.0000 </r>
       <r>    1.2302    1.0000 </r>
       <r>    1.2372    1.0000 </r>
       <r>    1.2372    1.0000 </r>
       <r>    1.3414    1.0000 </r>
       <r>    1.3416    1.0000 </r>
       <r>    1.3416    1.0000 </r>
       <r>    1.3419    1.0000 </r>
       <r>    1.3653    1.0000 </r>
       <r>    1.3665    1.0000 </r>
       <r>    1.3665    1.0000 </r>
       <r>    1.3672    1.0000 </r>
       <r>    1.3673    1.0000 </r>
       <r>    1.3734    1.0000 </r>
       <r>    1.3735    1.0000 </r>
       <r>    1.3736    1.0000 </r>
       <r>    1.3737    1.0000 </r>
[...]
       <r>    -1.7773     0.0000    96.0000 </r>
       <r>    -1.7056     0.0000    96.0000 </r>
       <r>    -1.6340     0.0000    96.0000 </r>
       <r>    -1.5623     0.0000    96.0000 </r>
       <r>    -1.4907     0.0000    96.0000 </r>
       <r>    -1.4190     0.0000    96.0000 </r>
       <r>    -1.3474     0.0000    96.0000 </r>
       <r>    -1.2757     0.0000    96.0000 </r>
       <r>    -1.2041     0.0000    96.0000 </r>
       <r>    -1.1324     0.0000    96.0000 </r>
       <r>    -1.0608     0.0000    96.0000 </r>
       <r>    -0.9891     0.0000    96.0000 </r>
       <r>    -0.9175     0.0000    96.0000 </r>
       <r>    -0.8458     0.0000    96.0000 </r>
       <r>    -0.7742     0.0000    96.0000 </r>
       <r>    -0.7025     0.0000    96.0000 </r>
       <r>    -0.6308     0.0000    96.0000 </r>
       <r>    -0.5592     0.0000    96.0000 </r>
       <r>    -0.4875     0.0001    96.0000 </r>
       <r>    -0.4159     0.0846    96.0061 </r>
       <r>    -0.3442     1.7358    96.1304 </r>
       <r>    -0.2726     1.8843    96.2655 </r>
       <r>    -0.2009     8.1540    96.8497 </r>
       <r>    -0.1293    15.3923    97.9526 </r>
       <r>    -0.0576    23.9669    99.6699 </r>
       <r>     0.0140    50.8223   103.3114 </r>
       <r>     0.0857   101.3525   110.5736 </r>
       <r>     0.1573   188.3263   124.0676 </r>
       <r>     0.2290   204.9101   138.7499 </r>
       <r>     0.3006   274.3840   158.4102 </r>
       <r>     0.3723   194.4348   172.3419 </r>
       <r>     0.4439   125.2756   181.3182 </r>
       <r>     0.5156   140.7057   191.4001 </r>
       <r>     0.5872   124.2384   200.3021 </r>
       <r>     0.6589   165.0905   212.1312 </r>
       <r>     0.7305   244.9422   229.6819 </r>
       <r>     0.8022   229.1776   246.1030 </r>
       <r>     0.8739   290.5151   266.9191 </r>
       <r>     0.9455   286.2638   287.4306 </r>
       <r>     1.0172   147.6383   298.0092 </r>
       <r>     1.0888   183.2452   311.1392 </r>
       <r>     1.1605   226.4977   327.3683 </r>
       <r>     1.2321   228.8991   343.7694 </r>
       <r>     1.3038   297.7098   365.1011 </r>
       <r>     1.3754   305.6606   387.0024 </r>
       <r>     1.4471   391.1581   415.0298 </r>
       <r>     1.5187   355.5912   440.5087 </r>
       <r>     1.5904   373.0153   467.2362 </r>
       <r>     1.6620   365.6128   493.4332 </r>
       <r>     1.7337   391.3334   521.4732 </r>
       <r>     1.8053   372.8465   548.1885 </r>
       <r>     1.8770   357.8859   573.8319 </r>
       <r>     1.9486   388.6520   601.6797 </r>
       <r>     2.0203   414.6334   631.3892 </r>
       <r>     2.0919   378.6974   658.5238 </r>
       <r>     2.1636   360.8800   684.3817 </r>
       <r>     2.2352   374.8455   711.2402 </r>
       <r>     2.3069   397.3774   739.7133 </r>
       <r>     2.3786   338.7589   763.9862 </r>
       <r>     2.4502   296.4895   785.2303 </r>
       <r>     2.5219   338.9013   809.5134 </r>
       <r>     2.5935   354.4486   834.9105 </r>
       <r>     2.6652   408.5624   864.1850 </r>
       <r>     2.7368   374.8462   891.0436 </r>
       <r>     2.8085   379.0674   918.2047 </r>
       <r>     2.8801   431.5140   949.1237 </r>
       <r>     2.9518   498.2885   984.8272 </r>
       <r>     3.0234   497.6663  1020.4862 </r>
       <r>     3.0951   370.6720  1047.0457 </r>
       <r>     3.1667   234.4139  1063.8421 </r>
       <r>     3.2384   205.4515  1078.5631 </r>
       <r>     3.3100   170.9622  1090.8130 </r>
       <r>     3.3817   138.6953  1100.7508 </r>
       <r>     3.4533   119.1533  1109.2885 </r>
       <r>     3.5250   157.1198  1120.5465 </r>
       <r>     3.5966   163.6280  1132.2708 </r>
       <r>     3.6683   101.3389  1139.5320 </r>
       <r>     3.7399    96.7732  1146.4660 </r>
       <r>     3.8116    65.3365  1151.1475 </r>
       <r>     3.8833    72.0886  1156.3128 </r>
       <r>     3.9549    73.5379  1161.5820 </r>
       <r>     4.0266    65.0553  1166.2434 </r>
       <r>     4.0982    92.3716  1172.8620 </r>
       <r>     4.1699   103.0964  1180.2491 </r>
       <r>     4.2415   114.6454  1188.4637 </r>
       <r>     4.3132    75.2230  1193.8536 </r>
       <r>     4.3848    72.8959  1199.0768 </r>
       <r>     4.4565    65.3305  1203.7579 </r>
       <r>     4.5281    91.9453  1210.3460 </r>
       <r>     4.5998    93.4104  1217.0391 </r>
       <r>     4.6714   102.3881  1224.3754 </r>
       <r>     4.7431   139.2759  1234.3549 </r>
       <r>     4.8147   138.3051  1244.2648 </r>
       <r>     4.8864    72.9572  1249.4923 </r>
       <r>     4.9580    53.4682  1253.3235 </r>
       <r>     5.0297    55.0360  1257.2669 </r>
       <r>     5.1013    86.6866  1263.4782 </r>
       <r>     5.1730   143.9186  1273.7903 </r>
       <r>     5.2446   109.4222  1281.6307 </r>
       <r>     5.3163    63.2493  1286.1627 </r>
       <r>     5.3880    59.2738  1290.4098 </r>
       <r>     5.4596    69.3563  1295.3793 </r>
       <r>     5.5313    72.3682  1300.5647 </r>
       <r>     5.6029    76.5530  1306.0499 </r>
       <r>     5.6746   109.9748  1313.9298 </r>
       <r>     5.7462   132.4357  1323.4192 </r>
       <r>     5.8179    73.0377  1328.6525 </r>
       <r>     5.8895    64.4304  1333.2691 </r>
       <r>     5.9612    58.6534  1337.4717 </r>
       <r>     6.0328    30.5832  1339.6631 </r>
       <r>     6.1045    18.9953  1341.0241 </r>
       <r>     6.1761    21.5387  1342.5674 </r>
       <r>     6.2478    16.9000  1343.7784 </r>
       <r>     6.3194     9.0795  1344.4289 </r>
       <r>     6.3911     0.9863  1344.4996 </r>
       <r>     6.4627     0.1144  1344.5078 </r>
       <r>     6.5344     1.8639  1344.6414 </r>
       <r>     6.6060     1.8006  1344.7704 </r>
       <r>     6.6777     5.2709  1345.1481 </r>
       <r>     6.7493    22.7651  1346.7792 </r>
       <r>     6.8210    26.1034  1348.6496 </r>
       <r>     6.8927    11.3170  1349.4605 </r>
       <r>     6.9643     6.2960  1349.9116 </r>
       <r>     7.0360     8.9680  1350.5542 </r>
       <r>     7.1076     4.6814  1350.8896 </r>
       <r>     7.1793    21.3582  1352.4200 </r>
       <r>     7.2509    23.9405  1354.1354 </r>
       <r>     7.3226    28.0989  1356.1487 </r>
       <r>     7.3942    31.2667  1358.3891 </r>
       <r>     7.4659    30.3745  1360.5655 </r>
       <r>     7.5375    60.1681  1364.8767 </r>
       <r>     7.6092    71.9127  1370.0294 </r>
       <r>     7.6808    26.8093  1371.9503 </r>
       <r>     7.7525    54.3415  1375.8440 </r>
       <r>     7.8241    69.6189  1380.8324 </r>
       <r>     7.8958    73.2648  1386.0820 </r>
       <r>     7.9674    75.3345  1391.4799 </r>
       <r>     8.0391    66.5024  1396.2450 </r>
       <r>     8.1107    34.5615  1398.7214 </r>
       <r>     8.1824    18.7680  1400.0661 </r>
       <r>     8.2540     8.4200  1400.6695 </r>
       <r>     8.3257    10.1517  1401.3969 </r>
       <r>     8.3974    50.5666  1405.0201 </r>
       <r>     8.4690    34.5249  1407.4939 </r>
       <r>     8.5407    31.7697  1409.7702 </r>
       <r>     8.6123    94.3777  1416.5326 </r>
       <r>     8.6840   105.0260  1424.0580 </r>
       <r>     8.7556    58.7953  1428.2708 </r>
       <r>     8.8273    51.5221  1431.9625 </r>
       <r>     8.8989    33.4474  1434.3591 </r>
       <r>     8.9706    45.8072  1437.6413 </r>
       <r>     9.0422    30.4755  1439.8249 </r>
       <r>     9.1139    22.2812  1441.4214 </r>
       <r>     9.1855    10.3515  1442.1631 </r>
       <r>     9.2572    16.4895  1443.3446 </r>
       <r>     9.3288    53.3012  1447.1638 </r>
       <r>     9.4005    49.7239  1450.7266 </r>
       <r>     9.4721    54.3398  1454.6202 </r>
       <r>     9.5438    38.2640  1457.3619 </r>
       <r>     9.6154    50.7253  1460.9965 </r>
       <r>     9.6871    50.0645  1464.5838 </r>
       <r>     9.7587    47.8535  1468.0126 </r>
       <r>     9.8304    52.1780  1471.7513 </r>
       <r>     9.9021    76.4251  1477.2273 </r>
       <r>     9.9737    55.6992  1481.2183 </r>
       <r>    10.0454   107.8356  1488.9450 </r>
       <r>    10.1170   119.3150  1497.4942 </r>
       <r>    10.1887    43.5083  1500.6116 </r>
       <r>    10.2603    28.3612  1502.6438 </r>
       <r>    10.3320    48.8348  1506.1429 </r>
       <r>    10.4036    55.8373  1510.1438 </r>
       <r>    10.4753    90.2815  1516.6127 </r>
       <r>    10.5469   109.5836  1524.4646 </r>
       <r>    10.6186   112.1157  1532.4980 </r>
       <r>    10.6902    94.4762  1539.2674 </r>
       <r>    10.7619    78.1158  1544.8646 </r>
       <r>    10.8335   107.2682  1552.5506 </r>
       <r>    10.9052    90.2937  1559.0204 </r>
       <r>    10.9768    65.1475  1563.6883 </r>
       <r>    11.0485    35.1257  1566.2052 </r>
       <r>    11.1201    55.0555  1570.1500 </r>
       <r>    11.1918    52.0470  1573.8793 </r>
       <r>    11.2634    44.5506  1577.0715 </r>
       <r>    11.3351    83.0523  1583.0224 </r>
       <r>    11.4068    53.7253  1586.8719 </r>
       <r>    11.4784    54.6786  1590.7898 </r>
       <r>    11.5501    88.7303  1597.1475 </r>
       <r>    11.6217    68.3431  1602.0445 </r>
       <r>    11.6934    46.5033  1605.3765 </r>
       <r>    11.7650    12.3254  1606.2597 </r>
       <r>    11.8367    14.6469  1607.3092 </r>
       <r>    11.9083    36.1200  1609.8973 </r>
       <r>    11.9800    21.1943  1611.4159 </r>
       <r>    12.0516     3.0614  1611.6352 </r>
       <r>    12.1233     4.5287  1611.9597 </r>
       <r>    12.1949     0.5599  1611.9998 </r>
       <r>    12.2666     0.0022  1612.0000 </r>
       <r>    12.3382     0.0000  1612.0000 </r>
       <r>    12.4099     0.0000  1612.0000 </r>
       <r>    12.4815     0.0000  1612.0000 </r>
       <r>    12.5532     0.0000  1612.0000 </r>
       <r>    12.6248     0.0000  1612.0000 </r>
       <r>    12.6965     0.0000  1612.0000 </r>
       <r>    12.7681     0.0000  1612.0000 </r>
       <r>    12.8398     0.0000  1612.0000 </r>
       <r>    12.9115     0.0000  1612.0000 </r>
       <r>    12.9831     0.0000  1612.0000 </r>
       <r>    13.0548     0.0000  1612.0000 </r>
      </set>
     </set>
    </array>
   </total>
  </dos>
 </calculation>
 <structure name="finalpos" >
  <crystal>
   <varray name="basis" >
    <v>      14.01039598       0.00139138       0.00000000 </v>
    <v>      -0.00150196      13.76691092       0.00000000 </v>
    <v>       0.00000000       0.00000000      14.55019386 </v>
   </varray>
   <i name="volume">   2806.43958022 </i>
   <varray name="rec_basis" >
    <v>       0.07137557       0.00000779       0.00000000 </v>
    <v>      -0.00000721       0.07263794       0.00000000 </v>
    <v>       0.00000000       0.00000000       0.06872761 </v>
   </varray>
  </crystal>
  <varray name="positions" >
   <v>       0.42916522       0.17167077       0.33247735 </v>
   <v>       0.92987898       0.17167077       0.33247735 </v>
   <v>       0.42987898       0.67167077       0.33247735 </v>
   <v>       0.92987898       0.67167077       0.33247735 </v>
   <v>       0.42987898       0.17167077       0.66581068 </v>
   <v>       0.92987898       0.17167077       0.66581068 </v>
   <v>       0.42987898       0.67167077       0.66581068 </v>
   <v>       0.92987898       0.67167077       0.66581068 </v>
   <v>       0.42987898       0.17167077       0.99914401 </v>
   <v>       0.92987898       0.17167077       0.99914401 </v>
   <v>       0.42987898       0.67167077       0.99914401 </v>
   <v>       0.92987898       0.67167077       0.99914401 </v>
   <v>       0.07012102       0.32832923       0.33247735 </v>
   <v>       0.57012102       0.32832923       0.33247735 </v>
   <v>       0.07012102       0.82832923       0.33247735 </v>
   <v>       0.57012102       0.82832923       0.33247735 </v>
   <v>       0.07012102       0.32832923       0.66581068 </v>
   <v>       0.57012102       0.32832923       0.66581068 </v>
   <v>       0.07012102       0.82832923       0.66581068 </v>
   <v>       0.57012102       0.82832923       0.66581068 </v>
   <v>       0.07012102       0.32832923       0.99914401 </v>
   <v>       0.57012102       0.32832923       0.99914401 </v>
   <v>       0.07012102       0.82832923       0.99914401 </v>
   <v>       0.57012102       0.82832923       0.99914401 </v>
   <v>       0.32012053       0.42167367       0.05641075 </v>
   <v>       0.82012053       0.42167367       0.05641075 </v>
   <v>       0.32012053       0.92167367       0.05641075 </v>
   <v>       0.82012053       0.92167367       0.05641075 </v>
   <v>       0.32012053       0.42167367       0.38974408 </v>
   <v>       0.82012053       0.42167367       0.38974408 </v>
   <v>       0.32012053       0.92167367       0.38974408 </v>
   <v>       0.82012053       0.92167367       0.38974408 </v>
   <v>       0.32012053       0.42167367       0.72307741 </v>
   <v>       0.82012053       0.42167367       0.72307741 </v>
   <v>       0.32012053       0.92167367       0.72307741 </v>
   <v>       0.82012053       0.92167367       0.72307741 </v>
   <v>       0.17987947       0.07832633       0.05641075 </v>
   <v>       0.67987947       0.07832633       0.05641075 </v>
   <v>       0.17987947       0.57832633       0.05641075 </v>
   <v>       0.67987947       0.57832633       0.05641075 </v>
   <v>       0.17987947       0.07832633       0.38974408 </v>
   <v>       0.67987947       0.07832633       0.38974408 </v>
   <v>       0.17987947       0.57832633       0.38974408 </v>
   <v>       0.67987947       0.57832633       0.38974408 </v>
   <v>       0.17987947       0.07832633       0.72307741 </v>
   <v>       0.67987947       0.07832633       0.72307741 </v>
   <v>       0.17987947       0.57832633       0.72307741 </v>
   <v>       0.67987947       0.57832633       0.72307741 </v>
   <v>       0.17987776       0.32832369       0.16580856 </v>
   <v>       0.67987776       0.32832369       0.16580856 </v>
   <v>       0.17987776       0.82832369       0.16580856 </v>
   <v>       0.67987776       0.82832369       0.16580856 </v>
   <v>       0.17987776       0.32832369       0.49914189 </v>
   <v>       0.67987776       0.32832369       0.49914189 </v>
   <v>       0.17987776       0.82832369       0.49914189 </v>
   <v>       0.67987776       0.82832369       0.49914189 </v>
   <v>       0.17987776       0.32832369       0.83247522 </v>
   <v>       0.67987776       0.32832369       0.83247522 </v>
   <v>       0.17987776       0.82832369       0.83247522 </v>
   <v>       0.67987776       0.82832369       0.83247522 </v>
   <v>       0.32012224       0.17167631       0.16580856 </v>
   <v>       0.82012224       0.17167631       0.16580856 </v>
   <v>       0.32012224       0.67167631       0.16580856 </v>
   <v>       0.82012224       0.67167631       0.16580856 </v>
   <v>       0.32012224       0.17167631       0.49914189 </v>
   <v>       0.82012224       0.17167631       0.49914189 </v>
   <v>       0.32012224       0.67167631       0.49914189 </v>
   <v>       0.82012224       0.67167631       0.49914189 </v>
   <v>       0.32012224       0.17167631       0.83247522 </v>
   <v>       0.82012224       0.17167631       0.83247522 </v>
   <v>       0.32012224       0.67167631       0.83247522 </v>
   <v>       0.82012224       0.67167631       0.83247522 </v>
   <v>       0.42987656       0.42167494       0.22308000 </v>
   <v>       0.92987656       0.42167494       0.22308000 </v>
   <v>       0.42987656       0.92167494       0.22308000 </v>
   <v>       0.92987656       0.92167494       0.22308000 </v>
   <v>       0.42987656       0.42167494       0.55641333 </v>
   <v>       0.92987656       0.42167494       0.55641333 </v>
   <v>       0.42987656       0.92167494       0.55641333 </v>
   <v>       0.92987656       0.92167494       0.55641333 </v>
   <v>       0.42987656       0.42167494       0.88974666 </v>
   <v>       0.92987656       0.42167494       0.88974666 </v>
   <v>       0.42987656       0.92167494       0.88974666 </v>
   <v>       0.92987656       0.92167494       0.88974666 </v>
   <v>       0.07012344       0.07832506       0.22308000 </v>
   <v>       0.57012344       0.07832506       0.22308000 </v>
   <v>       0.07012344       0.57832506       0.22308000 </v>
   <v>       0.57012344       0.57832506       0.22308000 </v>
   <v>       0.07012344       0.07832506       0.55641333 </v>
   <v>       0.57012344       0.07832506       0.55641333 </v>
   <v>       0.07012344       0.57832506       0.55641333 </v>
   <v>       0.57012344       0.57832506       0.55641333 </v>
   <v>       0.07012344       0.07832506       0.88974666 </v>
   <v>       0.57012344       0.07832506       0.88974666 </v>
   <v>       0.07012344       0.57832506       0.88974666 </v>
   <v>       0.57012344       0.57832506       0.88974666 </v>
   <v>       0.00000000       0.00000000       0.05479365 </v>
   <v>       0.50000000       0.00000000       0.05479365 </v>
   <v>       0.00000000       0.50000000       0.05479365 </v>
   <v>       0.50000000       0.50000000       0.05479365 </v>
   <v>       0.00000000       0.00000000       0.38812698 </v>
   <v>       0.50000000       0.00000000       0.38812698 </v>
   <v>       0.00000000       0.50000000       0.38812698 </v>
   <v>       0.50000000       0.50000000       0.38812698 </v>
   <v>       0.00000000       0.00000000       0.72146032 </v>
   <v>       0.50000000       0.00000000       0.72146032 </v>
   <v>       0.00000000       0.50000000       0.72146032 </v>
   <v>       0.50000000       0.50000000       0.72146032 </v>
   <v>       0.25000000       0.00000000       0.22145206 </v>
   <v>       0.75000000       0.00000000       0.22145206 </v>
   <v>       0.25000000       0.50000000       0.22145206 </v>
   <v>       0.75000000       0.50000000       0.22145206 </v>
   <v>       0.25000000       0.00000000       0.55478539 </v>
   <v>       0.75000000       0.00000000       0.55478539 </v>
   <v>       0.25000000       0.50000000       0.55478539 </v>
   <v>       0.75000000       0.50000000       0.55478539 </v>
   <v>       0.25000000       0.00000000       0.88811873 </v>
   <v>       0.75000000       0.00000000       0.88811873 </v>
   <v>       0.25000000       0.50000000       0.88811873 </v>
   <v>       0.75000000       0.50000000       0.88811873 </v>
   <v>       0.00000000       0.25000000       0.16743769 </v>
   <v>       0.50000000       0.25000000       0.16743769 </v>
   <v>       0.00000000       0.75000000       0.16743769 </v>
   <v>       0.50000000       0.75000000       0.16743769 </v>
   <v>       0.00000000       0.25000000       0.50077102 </v>
   <v>       0.50000000       0.25000000       0.50077102 </v>
   <v>       0.00000000       0.75000000       0.50077102 </v>
   <v>       0.50000000       0.75000000       0.50077102 </v>
   <v>       0.00000000       0.25000000       0.83410435 </v>
   <v>       0.50000000       0.25000000       0.83410435 </v>
   <v>       0.00000000       0.75000000       0.83410435 </v>
   <v>       0.50000000       0.75000000       0.83410435 </v>
   <v>       0.25000000       0.25000000       0.00076332 </v>
   <v>       0.75000000       0.25000000       0.00076332 </v>
   <v>       0.25000000       0.75000000       0.00076332 </v>
   <v>       0.75000000       0.75000000       0.00076332 </v>
   <v>       0.25000000       0.25000000       0.33409665 </v>
   <v>       0.75000000       0.25000000       0.33409665 </v>
   <v>       0.25000000       0.75000000       0.33409665 </v>
   <v>       0.75000000       0.75000000       0.33409665 </v>
   <v>       0.25000000       0.25000000       0.66742999 </v>
   <v>       0.75000000       0.25000000       0.66742999 </v>
   <v>       0.25000000       0.75000000       0.66742999 </v>
   <v>       0.75000000       0.75000000       0.66742999 </v>
  </varray>
 </structure>
</modeling>
