 144 144   0   0
  0.1948916E+02  0.1401040E-08  0.1376691E-08  0.1455019E-08  0.5000000E-15
  1.000000000000000E-004
  CAR 
 unknown system                          
     13.06031748     -8.44121420  301      6.26449491      1.00000000
     -8.441  0.0000E+00  0.0000E+00
     -8.370  0.0000E+00  0.0000E+00
     -8.298  0.0000E+00  0.0000E+00
     -8.226  0.0000E+00  0.0000E+00
     -8.155  0.0000E+00  0.0000E+00
     -8.083  0.0000E+00  0.0000E+00
     -8.011  0.0000E+00  0.0000E+00
     -7.940  0.0000E+00  0.0000E+00
     -7.868  0.0000E+00  0.0000E+00
     -7.796  0.0000E+00  0.0000E+00
     -7.724  0.2941E-12  0.2108E-13
     -7.653  0.1582E-06  0.1134E-07
     -7.581  0.1587E-02  0.1137E-03
     -7.509  0.3517E+00  0.2532E-01
     -7.438  0.4313E+01  0.3345E+00
     -7.366  0.1911E+02  0.1704E+01
     -7.294  0.3786E+02  0.4418E+01
     -7.223  0.3949E+02  0.7248E+01
     -7.151  0.6436E+02  0.1186E+02
     -7.079  0.1004E+03  0.1906E+02
     -7.008  0.1265E+03  0.2812E+02
     -6.936  0.2083E+03  0.4305E+02
     -6.864  0.2226E+03  0.5901E+02
     -6.793  0.2575E+03  0.7747E+02
     -6.721  0.2070E+03  0.9230E+02
     -6.649  0.4936E+02  0.9584E+02
     -6.578  0.2211E+01  0.9600E+02
     -6.506  0.7927E-02  0.9600E+02
     -6.434  0.9930E-06  0.9600E+02
     -6.363  0.2914E-11  0.9600E+02
     -6.291  0.0000E+00  0.9600E+02
     -6.219  0.0000E+00  0.9600E+02
     -6.148  0.0000E+00  0.9600E+02
     -6.076  0.0000E+00  0.9600E+02
     -6.004  0.0000E+00  0.9600E+02
     -5.933  0.0000E+00  0.9600E+02
     -5.861  0.0000E+00  0.9600E+02
     -5.789  0.0000E+00  0.9600E+02
     -5.718  0.0000E+00  0.9600E+02
     -5.646  0.0000E+00  0.9600E+02
     -5.574  0.0000E+00  0.9600E+02
     -5.503  0.0000E+00  0.9600E+02
     -5.431  0.0000E+00  0.9600E+02
     -5.359  0.0000E+00  0.9600E+02
     -5.288  0.0000E+00  0.9600E+02
     -5.216  0.0000E+00  0.9600E+02
     -5.144  0.0000E+00  0.9600E+02
     -5.073  0.0000E+00  0.9600E+02
     -5.001  0.0000E+00  0.9600E+02
     -4.929  0.0000E+00  0.9600E+02
     -4.858  0.0000E+00  0.9600E+02
     -4.786  0.0000E+00  0.9600E+02
     -4.714  0.0000E+00  0.9600E+02
     -4.643  0.0000E+00  0.9600E+02
     -4.571  0.0000E+00  0.9600E+02
     -4.499  0.0000E+00  0.9600E+02
     -4.428  0.0000E+00  0.9600E+02
     -4.356  0.0000E+00  0.9600E+02
     -4.284  0.0000E+00  0.9600E+02
     -4.213  0.0000E+00  0.9600E+02
     -4.141  0.0000E+00  0.9600E+02
     -4.069  0.0000E+00  0.9600E+02
     -3.998  0.0000E+00  0.9600E+02
     -3.926  0.0000E+00  0.9600E+02
     -3.854  0.0000E+00  0.9600E+02
     -3.783  0.0000E+00  0.9600E+02
     -3.711  0.0000E+00  0.9600E+02
     -3.639  0.0000E+00  0.9600E+02
     -3.568  0.0000E+00  0.9600E+02
     -3.496  0.0000E+00  0.9600E+02
     -3.424  0.0000E+00  0.9600E+02
     -3.353  0.0000E+00  0.9600E+02
     -3.281  0.0000E+00  0.9600E+02
     -3.209  0.0000E+00  0.9600E+02
     -3.138  0.0000E+00  0.9600E+02
     -3.066  0.0000E+00  0.9600E+02
     -2.994  0.0000E+00  0.9600E+02
     -2.922  0.0000E+00  0.9600E+02
     -2.851  0.0000E+00  0.9600E+02
     -2.779  0.0000E+00  0.9600E+02
     -2.707  0.0000E+00  0.9600E+02
     -2.636  0.0000E+00  0.9600E+02
     -2.564  0.0000E+00  0.9600E+02
     -2.492  0.0000E+00  0.9600E+02
     -2.421  0.0000E+00  0.9600E+02
     -2.349  0.0000E+00  0.9600E+02
     -2.277  0.0000E+00  0.9600E+02
     -2.206  0.0000E+00  0.9600E+02
     -2.134  0.0000E+00  0.9600E+02
     -2.062  0.0000E+00  0.9600E+02
     -1.991  0.0000E+00  0.9600E+02
     -1.919  0.0000E+00  0.9600E+02
     -1.847  0.0000E+00  0.9600E+02
     -1.776  0.0000E+00  0.9600E+02
     -1.704  0.0000E+00  0.9600E+02
     -1.632  0.0000E+00  0.9600E+02
     -1.561  0.0000E+00  0.9600E+02
     -1.489  0.0000E+00  0.9600E+02
     -1.417  0.0000E+00  0.9600E+02
     -1.346  0.0000E+00  0.9600E+02
     -1.274  0.0000E+00  0.9600E+02
     -1.202  0.0000E+00  0.9600E+02
     -1.131  0.0000E+00  0.9600E+02
     -1.059  0.0000E+00  0.9600E+02
     -0.987  0.0000E+00  0.9600E+02
     -0.916  0.0000E+00  0.9600E+02
     -0.844  0.0000E+00  0.9600E+02
     -0.772  0.0000E+00  0.9600E+02
     -0.701  0.0000E+00  0.9600E+02
     -0.629  0.2130E-14  0.9600E+02
     -0.557  0.4030E-08  0.9600E+02
     -0.486  0.1379E-03  0.9600E+02
     -0.414  0.9555E-01  0.9601E+02
     -0.342  0.1798E+01  0.9614E+02
     -0.271  0.1858E+01  0.9627E+02
     -0.199  0.8534E+01  0.9688E+02
     -0.127  0.1537E+02  0.9798E+02
     -0.056  0.2452E+02  0.9974E+02
      0.016  0.5179E+02  0.1035E+03
      0.088  0.1039E+03  0.1109E+03
      0.159  0.1892E+03  0.1245E+03
      0.231  0.2068E+03  0.1393E+03
      0.303  0.2740E+03  0.1589E+03
      0.374  0.1918E+03  0.1727E+03
      0.446  0.1244E+03  0.1816E+03
      0.518  0.1410E+03  0.1917E+03
      0.589  0.1238E+03  0.2006E+03
      0.661  0.1683E+03  0.2126E+03
      0.733  0.2457E+03  0.2302E+03
      0.804  0.2292E+03  0.2467E+03
      0.876  0.2930E+03  0.2677E+03
      0.948  0.2829E+03  0.2879E+03
      1.019  0.1449E+03  0.2983E+03
      1.091  0.1856E+03  0.3116E+03
      1.163  0.2272E+03  0.3279E+03
      1.234  0.2303E+03  0.3444E+03
      1.306  0.2983E+03  0.3658E+03
      1.378  0.3083E+03  0.3879E+03
      1.449  0.3919E+03  0.4160E+03
      1.521  0.3548E+03  0.4414E+03
      1.593  0.3733E+03  0.4682E+03
      1.665  0.3653E+03  0.4944E+03
      1.736  0.3921E+03  0.5225E+03
      1.808  0.3716E+03  0.5491E+03
      1.880  0.3584E+03  0.5748E+03
      1.951  0.3898E+03  0.6027E+03
      2.023  0.4145E+03  0.6324E+03
      2.095  0.3773E+03  0.6595E+03
      2.166  0.3616E+03  0.6854E+03
      2.238  0.3753E+03  0.7123E+03
      2.310  0.3965E+03  0.7407E+03
      2.381  0.3370E+03  0.7649E+03
      2.453  0.2959E+03  0.7861E+03
      2.525  0.3401E+03  0.8104E+03
      2.596  0.3565E+03  0.8360E+03
      2.668  0.4090E+03  0.8653E+03
      2.740  0.3727E+03  0.8920E+03
      2.811  0.3815E+03  0.9194E+03
      2.883  0.4330E+03  0.9504E+03
      2.955  0.5012E+03  0.9863E+03
      3.026  0.4943E+03  0.1022E+04
      3.098  0.3644E+03  0.1048E+04
      3.170  0.2314E+03  0.1064E+04
      3.241  0.2047E+03  0.1079E+04
      3.313  0.1697E+03  0.1091E+04
      3.385  0.1365E+03  0.1101E+04
      3.456  0.1206E+03  0.1110E+04
      3.528  0.1586E+03  0.1121E+04
      3.600  0.1615E+03  0.1133E+04
      3.671  0.9984E+02  0.1140E+04
      3.743  0.9669E+02  0.1147E+04
      3.815  0.6384E+02  0.1151E+04
      3.886  0.7330E+02  0.1157E+04
      3.958  0.7251E+02  0.1162E+04
      4.030  0.6637E+02  0.1167E+04
      4.101  0.9199E+02  0.1173E+04
      4.173  0.1055E+03  0.1181E+04
      4.245  0.1125E+03  0.1189E+04
      4.316  0.7437E+02  0.1194E+04
      4.388  0.7312E+02  0.1199E+04
      4.460  0.6556E+02  0.1204E+04
      4.531  0.9298E+02  0.1211E+04
      4.603  0.9318E+02  0.1217E+04
      4.675  0.1030E+03  0.1225E+04
      4.746  0.1417E+03  0.1235E+04
      4.818  0.1357E+03  0.1245E+04
      4.890  0.7033E+02  0.1250E+04
      4.961  0.5384E+02  0.1254E+04
      5.033  0.5523E+02  0.1257E+04
      5.105  0.8946E+02  0.1264E+04
      5.176  0.1454E+03  0.1274E+04
      5.248  0.1057E+03  0.1282E+04
      5.320  0.6222E+02  0.1286E+04
      5.391  0.6066E+02  0.1291E+04
      5.463  0.6846E+02  0.1296E+04
      5.535  0.7313E+02  0.1301E+04
      5.606  0.7682E+02  0.1306E+04
      5.678  0.1131E+03  0.1314E+04
      5.750  0.1300E+03  0.1324E+04
      5.821  0.7142E+02  0.1329E+04
      5.893  0.6462E+02  0.1334E+04
      5.965  0.5731E+02  0.1338E+04
      6.036  0.2970E+02  0.1340E+04
      6.108  0.1869E+02  0.1341E+04
      6.180  0.2160E+02  0.1343E+04
      6.251  0.1661E+02  0.1344E+04
      6.323  0.8519E+01  0.1344E+04
      6.395  0.8155E+00  0.1344E+04
      6.467  0.1412E+00  0.1345E+04
      6.538  0.1980E+01  0.1345E+04
      6.610  0.1742E+01  0.1345E+04
      6.682  0.5855E+01  0.1345E+04
      6.753  0.2370E+02  0.1347E+04
      6.825  0.2550E+02  0.1349E+04
      6.897  0.1067E+02  0.1349E+04
      6.968  0.6346E+01  0.1350E+04
      7.040  0.8920E+01  0.1351E+04
      7.112  0.4800E+01  0.1351E+04
      7.183  0.2233E+02  0.1353E+04
      7.255  0.2407E+02  0.1354E+04
      7.327  0.2775E+02  0.1356E+04
      7.398  0.3213E+02  0.1359E+04
      7.470  0.3004E+02  0.1361E+04
      7.542  0.6335E+02  0.1365E+04
      7.613  0.6904E+02  0.1370E+04
      7.685  0.2642E+02  0.1372E+04
      7.757  0.5663E+02  0.1376E+04
      7.828  0.6974E+02  0.1381E+04
      7.900  0.7310E+02  0.1386E+04
      7.972  0.7611E+02  0.1392E+04
      8.043  0.6403E+02  0.1396E+04
      8.115  0.3370E+02  0.1399E+04
      8.187  0.1796E+02  0.1400E+04
      8.258  0.7929E+01  0.1401E+04
      8.330  0.1168E+02  0.1402E+04
      8.402  0.5194E+02  0.1405E+04
      8.473  0.3249E+02  0.1408E+04
      8.545  0.3434E+02  0.1410E+04
      8.617  0.9797E+02  0.1417E+04
      8.688  0.1020E+03  0.1424E+04
      8.760  0.5788E+02  0.1429E+04
      8.832  0.5035E+02  0.1432E+04
      8.903  0.3356E+02  0.1435E+04
      8.975  0.4590E+02  0.1438E+04
      9.047  0.2933E+02  0.1440E+04
      9.118  0.2182E+02  0.1441E+04
      9.190  0.9992E+01  0.1442E+04
      9.262  0.1807E+02  0.1444E+04
      9.333  0.5492E+02  0.1447E+04
      9.405  0.4913E+02  0.1451E+04
      9.477  0.5410E+02  0.1455E+04
      9.548  0.3780E+02  0.1458E+04
      9.620  0.5146E+02  0.1461E+04
      9.692  0.5024E+02  0.1465E+04
      9.763  0.4715E+02  0.1468E+04
      9.835  0.5404E+02  0.1472E+04
      9.907  0.7561E+02  0.1478E+04
      9.978  0.5713E+02  0.1482E+04
     10.050  0.1110E+03  0.1490E+04
     10.122  0.1162E+03  0.1498E+04
     10.193  0.3957E+02  0.1501E+04
     10.265  0.2975E+02  0.1503E+04
     10.337  0.4890E+02  0.1506E+04
     10.408  0.5865E+02  0.1511E+04
     10.480  0.9071E+02  0.1517E+04
     10.552  0.1117E+03  0.1525E+04
     10.623  0.1106E+03  0.1533E+04
     10.695  0.9262E+02  0.1540E+04
     10.767  0.7969E+02  0.1545E+04
     10.838  0.1080E+03  0.1553E+04
     10.910  0.8751E+02  0.1559E+04
     10.982  0.6410E+02  0.1564E+04
     11.054  0.3362E+02  0.1566E+04
     11.125  0.5751E+02  0.1570E+04
     11.197  0.5009E+02  0.1574E+04
     11.269  0.4650E+02  0.1577E+04
     11.340  0.8348E+02  0.1583E+04
     11.412  0.5171E+02  0.1587E+04
     11.484  0.5686E+02  0.1591E+04
     11.555  0.8893E+02  0.1598E+04
     11.627  0.6662E+02  0.1602E+04
     11.699  0.4421E+02  0.1605E+04
     11.770  0.1115E+02  0.1606E+04
     11.842  0.1528E+02  0.1607E+04
     11.914  0.3685E+02  0.1610E+04
     11.985  0.1968E+02  0.1611E+04
     12.057  0.2824E+01  0.1612E+04
     12.129  0.4484E+01  0.1612E+04
     12.200  0.5382E+00  0.1612E+04
     12.272  0.2113E-02  0.1612E+04
     12.344  0.1878E-06  0.1612E+04
     12.415  0.3249E-12  0.1612E+04
     12.487  0.0000E+00  0.1612E+04
     12.559  0.0000E+00  0.1612E+04
     12.630  0.0000E+00  0.1612E+04
     12.702  0.0000E+00  0.1612E+04
     12.774  0.0000E+00  0.1612E+04
     12.845  0.0000E+00  0.1612E+04
     12.917  0.0000E+00  0.1612E+04
     12.989  0.0000E+00  0.1612E+04
     13.060  0.0000E+00  0.1612E+04
