 192 192   0   0
  0.1931523E+02  0.1767436E-08  0.1377516E-08  0.1580299E-08  0.5000000E-15
  1.000000000000000E-004
  CAR 
 unknown system                          
     13.17606928     -8.37157104  301      6.46164553      1.00000000
     -8.372  0.0000E+00  0.0000E+00
     -8.300  0.0000E+00  0.0000E+00
     -8.228  0.0000E+00  0.0000E+00
     -8.156  0.0000E+00  0.0000E+00
     -8.084  0.0000E+00  0.0000E+00
     -8.012  0.0000E+00  0.0000E+00
     -7.941  0.0000E+00  0.0000E+00
     -7.869  0.0000E+00  0.0000E+00
     -7.797  0.0000E+00  0.0000E+00
     -7.725  0.0000E+00  0.0000E+00
     -7.653  0.2606E-12  0.1872E-13
     -7.581  0.1482E-06  0.1065E-07
     -7.510  0.1548E-02  0.1112E-03
     -7.438  0.3658E+00  0.2639E-01
     -7.366  0.5491E+01  0.4208E+00
     -7.294  0.2301E+02  0.2073E+01
     -7.222  0.4304E+02  0.5165E+01
     -7.151  0.5042E+02  0.8786E+01
     -7.079  0.7164E+02  0.1393E+02
     -7.007  0.1043E+03  0.2142E+02
     -6.935  0.1350E+03  0.3112E+02
     -6.863  0.2022E+03  0.4564E+02
     -6.791  0.2958E+03  0.6689E+02
     -6.720  0.3590E+03  0.9268E+02
     -6.648  0.2851E+03  0.1132E+03
     -6.576  0.1761E+03  0.1258E+03
     -6.504  0.3015E+02  0.1280E+03
     -6.432  0.4617E+00  0.1280E+03
     -6.360  0.2663E-03  0.1280E+03
     -6.289  0.3537E-08  0.1280E+03
     -6.217  0.0000E+00  0.1280E+03
     -6.145  0.0000E+00  0.1280E+03
     -6.073  0.0000E+00  0.1280E+03
     -6.001  0.0000E+00  0.1280E+03
     -5.930  0.0000E+00  0.1280E+03
     -5.858  0.0000E+00  0.1280E+03
     -5.786  0.0000E+00  0.1280E+03
     -5.714  0.0000E+00  0.1280E+03
     -5.642  0.0000E+00  0.1280E+03
     -5.570  0.0000E+00  0.1280E+03
     -5.499  0.0000E+00  0.1280E+03
     -5.427  0.0000E+00  0.1280E+03
     -5.355  0.0000E+00  0.1280E+03
     -5.283  0.0000E+00  0.1280E+03
     -5.211  0.0000E+00  0.1280E+03
     -5.139  0.0000E+00  0.1280E+03
     -5.068  0.0000E+00  0.1280E+03
     -4.996  0.0000E+00  0.1280E+03
     -4.924  0.0000E+00  0.1280E+03
     -4.852  0.0000E+00  0.1280E+03
     -4.780  0.0000E+00  0.1280E+03
     -4.708  0.0000E+00  0.1280E+03
     -4.637  0.0000E+00  0.1280E+03
     -4.565  0.0000E+00  0.1280E+03
     -4.493  0.0000E+00  0.1280E+03
     -4.421  0.0000E+00  0.1280E+03
     -4.349  0.0000E+00  0.1280E+03
     -4.278  0.0000E+00  0.1280E+03
     -4.206  0.0000E+00  0.1280E+03
     -4.134  0.0000E+00  0.1280E+03
     -4.062  0.0000E+00  0.1280E+03
     -3.990  0.0000E+00  0.1280E+03
     -3.918  0.0000E+00  0.1280E+03
     -3.847  0.0000E+00  0.1280E+03
     -3.775  0.0000E+00  0.1280E+03
     -3.703  0.0000E+00  0.1280E+03
     -3.631  0.0000E+00  0.1280E+03
     -3.559  0.0000E+00  0.1280E+03
     -3.487  0.0000E+00  0.1280E+03
     -3.416  0.0000E+00  0.1280E+03
     -3.344  0.0000E+00  0.1280E+03
     -3.272  0.0000E+00  0.1280E+03
     -3.200  0.0000E+00  0.1280E+03
     -3.128  0.0000E+00  0.1280E+03
     -3.056  0.0000E+00  0.1280E+03
     -2.985  0.0000E+00  0.1280E+03
     -2.913  0.0000E+00  0.1280E+03
     -2.841  0.0000E+00  0.1280E+03
     -2.769  0.0000E+00  0.1280E+03
     -2.697  0.0000E+00  0.1280E+03
     -2.626  0.0000E+00  0.1280E+03
     -2.554  0.0000E+00  0.1280E+03
     -2.482  0.0000E+00  0.1280E+03
     -2.410  0.0000E+00  0.1280E+03
     -2.338  0.0000E+00  0.1280E+03
     -2.266  0.0000E+00  0.1280E+03
     -2.195  0.0000E+00  0.1280E+03
     -2.123  0.0000E+00  0.1280E+03
     -2.051  0.0000E+00  0.1280E+03
     -1.979  0.0000E+00  0.1280E+03
     -1.907  0.0000E+00  0.1280E+03
     -1.835  0.0000E+00  0.1280E+03
     -1.764  0.0000E+00  0.1280E+03
     -1.692  0.0000E+00  0.1280E+03
     -1.620  0.0000E+00  0.1280E+03
     -1.548  0.0000E+00  0.1280E+03
     -1.476  0.0000E+00  0.1280E+03
     -1.405  0.0000E+00  0.1280E+03
     -1.333  0.0000E+00  0.1280E+03
     -1.261  0.0000E+00  0.1280E+03
     -1.189  0.0000E+00  0.1280E+03
     -1.117  0.0000E+00  0.1280E+03
     -1.045  0.0000E+00  0.1280E+03
     -0.974  0.0000E+00  0.1280E+03
     -0.902  0.0000E+00  0.1280E+03
     -0.830  0.0000E+00  0.1280E+03
     -0.758  0.0000E+00  0.1280E+03
     -0.686  0.0000E+00  0.1280E+03
     -0.614  0.0000E+00  0.1280E+03
     -0.543  0.0000E+00  0.1280E+03
     -0.471  0.2896E-12  0.1280E+03
     -0.399  0.1922E-06  0.1280E+03
     -0.327  0.2331E-02  0.1280E+03
     -0.255  0.6081E+00  0.1280E+03
     -0.183  0.6458E+01  0.1285E+03
     -0.112  0.1531E+02  0.1296E+03
     -0.040  0.5022E+02  0.1332E+03
      0.032  0.5063E+02  0.1369E+03
      0.104  0.7866E+02  0.1425E+03
      0.176  0.2297E+03  0.1590E+03
      0.247  0.2683E+03  0.1783E+03
      0.319  0.2110E+03  0.1934E+03
      0.391  0.2442E+03  0.2110E+03
      0.463  0.2891E+03  0.2317E+03
      0.535  0.2060E+03  0.2465E+03
      0.607  0.2014E+03  0.2610E+03
      0.678  0.2089E+03  0.2760E+03
      0.750  0.2261E+03  0.2922E+03
      0.822  0.3000E+03  0.3138E+03
      0.894  0.2879E+03  0.3345E+03
      0.966  0.2666E+03  0.3536E+03
      1.038  0.3226E+03  0.3768E+03
      1.109  0.3086E+03  0.3989E+03
      1.181  0.2813E+03  0.4191E+03
      1.253  0.2353E+03  0.4360E+03
      1.325  0.2554E+03  0.4544E+03
      1.397  0.3403E+03  0.4788E+03
      1.469  0.4252E+03  0.5094E+03
      1.540  0.4102E+03  0.5388E+03
      1.612  0.4512E+03  0.5712E+03
      1.684  0.5247E+03  0.6089E+03
      1.756  0.5216E+03  0.6464E+03
      1.828  0.5078E+03  0.6829E+03
      1.899  0.3780E+03  0.7100E+03
      1.971  0.4638E+03  0.7433E+03
      2.043  0.4365E+03  0.7747E+03
      2.115  0.4842E+03  0.8094E+03
      2.187  0.5433E+03  0.8485E+03
      2.259  0.5745E+03  0.8897E+03
      2.330  0.6210E+03  0.9343E+03
      2.402  0.6675E+03  0.9823E+03
      2.474  0.6024E+03  0.1026E+04
      2.546  0.5494E+03  0.1065E+04
      2.618  0.5609E+03  0.1105E+04
      2.690  0.5779E+03  0.1147E+04
      2.761  0.6512E+03  0.1194E+04
      2.833  0.6877E+03  0.1243E+04
      2.905  0.5399E+03  0.1282E+04
      2.977  0.4651E+03  0.1315E+04
      3.049  0.4663E+03  0.1349E+04
      3.121  0.4437E+03  0.1381E+04
      3.192  0.4305E+03  0.1411E+04
      3.264  0.3336E+03  0.1435E+04
      3.336  0.2239E+03  0.1451E+04
      3.408  0.1798E+03  0.1464E+04
      3.480  0.1890E+03  0.1478E+04
      3.551  0.1915E+03  0.1492E+04
      3.623  0.2042E+03  0.1506E+04
      3.695  0.1731E+03  0.1519E+04
      3.767  0.1133E+03  0.1527E+04
      3.839  0.9342E+02  0.1534E+04
      3.911  0.1055E+03  0.1541E+04
      3.982  0.1189E+03  0.1550E+04
      4.054  0.9524E+02  0.1557E+04
      4.126  0.1101E+03  0.1565E+04
      4.198  0.1545E+03  0.1576E+04
      4.270  0.8885E+02  0.1582E+04
      4.342  0.8921E+02  0.1588E+04
      4.413  0.9368E+02  0.1595E+04
      4.485  0.9638E+02  0.1602E+04
      4.557  0.1551E+03  0.1613E+04
      4.629  0.1054E+03  0.1621E+04
      4.701  0.9571E+02  0.1628E+04
      4.772  0.1120E+03  0.1636E+04
      4.844  0.8239E+02  0.1642E+04
      4.916  0.1139E+03  0.1650E+04
      4.988  0.1728E+03  0.1662E+04
      5.060  0.1140E+03  0.1670E+04
      5.132  0.7167E+02  0.1676E+04
      5.203  0.9101E+02  0.1682E+04
      5.275  0.7924E+02  0.1688E+04
      5.347  0.1306E+03  0.1697E+04
      5.419  0.1444E+03  0.1708E+04
      5.491  0.1085E+03  0.1715E+04
      5.563  0.6946E+02  0.1720E+04
      5.634  0.1049E+03  0.1728E+04
      5.706  0.1477E+03  0.1738E+04
      5.778  0.1484E+03  0.1749E+04
      5.850  0.1036E+03  0.1757E+04
      5.922  0.1245E+03  0.1765E+04
      5.994  0.1088E+03  0.1773E+04
      6.065  0.8402E+02  0.1779E+04
      6.137  0.5527E+02  0.1783E+04
      6.209  0.4234E+02  0.1786E+04
      6.281  0.3473E+02  0.1789E+04
      6.353  0.2850E+02  0.1791E+04
      6.424  0.1144E+02  0.1792E+04
      6.496  0.6319E+01  0.1792E+04
      6.568  0.2210E+01  0.1792E+04
      6.640  0.4856E+01  0.1793E+04
      6.712  0.2474E+01  0.1793E+04
      6.784  0.2050E+01  0.1793E+04
      6.855  0.2723E+01  0.1793E+04
      6.927  0.1323E+02  0.1794E+04
      6.999  0.1473E+02  0.1795E+04
      7.071  0.8977E+01  0.1796E+04
      7.143  0.1310E+02  0.1797E+04
      7.215  0.2846E+02  0.1799E+04
      7.286  0.2832E+02  0.1801E+04
      7.358  0.2006E+02  0.1802E+04
      7.430  0.3309E+02  0.1805E+04
      7.502  0.3606E+02  0.1807E+04
      7.574  0.3923E+02  0.1810E+04
      7.646  0.6266E+02  0.1815E+04
      7.717  0.6637E+02  0.1819E+04
      7.789  0.7584E+02  0.1825E+04
      7.861  0.6926E+02  0.1830E+04
      7.933  0.6231E+02  0.1834E+04
      8.005  0.5938E+02  0.1839E+04
      8.076  0.8116E+02  0.1844E+04
      8.148  0.8095E+02  0.1850E+04
      8.220  0.8368E+02  0.1856E+04
      8.292  0.6831E+02  0.1861E+04
      8.364  0.6918E+02  0.1866E+04
      8.436  0.7598E+02  0.1872E+04
      8.507  0.9191E+02  0.1878E+04
      8.579  0.6515E+02  0.1883E+04
      8.651  0.6367E+02  0.1887E+04
      8.723  0.8251E+02  0.1893E+04
      8.795  0.8257E+02  0.1899E+04
      8.867  0.4955E+02  0.1903E+04
      8.938  0.4732E+02  0.1906E+04
      9.010  0.3900E+02  0.1909E+04
      9.082  0.6150E+02  0.1913E+04
      9.154  0.8657E+02  0.1920E+04
      9.226  0.5678E+02  0.1924E+04
      9.297  0.4885E+02  0.1927E+04
      9.369  0.6250E+02  0.1932E+04
      9.441  0.6584E+02  0.1936E+04
      9.513  0.5976E+02  0.1941E+04
      9.585  0.4240E+02  0.1944E+04
      9.657  0.7861E+02  0.1949E+04
      9.728  0.1131E+03  0.1958E+04
      9.800  0.9944E+02  0.1965E+04
      9.872  0.8373E+02  0.1971E+04
      9.944  0.7563E+02  0.1976E+04
     10.016  0.5638E+02  0.1980E+04
     10.088  0.9187E+02  0.1987E+04
     10.159  0.8603E+02  0.1993E+04
     10.231  0.1060E+03  0.2001E+04
     10.303  0.1105E+03  0.2008E+04
     10.375  0.1112E+03  0.2016E+04
     10.447  0.1076E+03  0.2024E+04
     10.519  0.8996E+02  0.2031E+04
     10.590  0.6898E+02  0.2036E+04
     10.662  0.7851E+02  0.2041E+04
     10.734  0.6526E+02  0.2046E+04
     10.806  0.7084E+02  0.2051E+04
     10.878  0.7421E+02  0.2056E+04
     10.949  0.6495E+02  0.2061E+04
     11.021  0.6115E+02  0.2065E+04
     11.093  0.1054E+03  0.2073E+04
     11.165  0.9294E+02  0.2080E+04
     11.237  0.8785E+02  0.2086E+04
     11.309  0.8856E+02  0.2092E+04
     11.380  0.8564E+02  0.2098E+04
     11.452  0.1180E+03  0.2107E+04
     11.524  0.1254E+03  0.2116E+04
     11.596  0.1176E+03  0.2124E+04
     11.668  0.9293E+02  0.2131E+04
     11.740  0.6487E+02  0.2136E+04
     11.811  0.8908E+02  0.2142E+04
     11.883  0.3550E+02  0.2145E+04
     11.955  0.2618E+02  0.2147E+04
     12.027  0.1216E+02  0.2147E+04
     12.099  0.2010E+02  0.2149E+04
     12.171  0.1042E+02  0.2150E+04
     12.242  0.4742E+01  0.2150E+04
     12.314  0.4006E+00  0.2150E+04
     12.386  0.1587E-02  0.2150E+04
     12.458  0.1489E-06  0.2150E+04
     12.530  0.2605E-12  0.2150E+04
     12.601  0.0000E+00  0.2150E+04
     12.673  0.0000E+00  0.2150E+04
     12.745  0.0000E+00  0.2150E+04
     12.817  0.0000E+00  0.2150E+04
     12.889  0.0000E+00  0.2150E+04
     12.961  0.0000E+00  0.2150E+04
     13.032  0.0000E+00  0.2150E+04
     13.104  0.0000E+00  0.2150E+04
     13.176  0.0000E+00  0.2150E+04
