<?xml version="1.0" encoding="ISO-8859-1"?>
<modeling>
 <generator>
  <i name="program" type="string">vasp </i>
  <i name="version" type="string">5.4.4.18Apr17-6-g9f103f2a35  </i>
  <i name="subversion" type="string">(build Jul 30 2020 14:31:59) complex            parallel </i>
  <i name="platform" type="string">LinuxIFC </i>
  <i name="date" type="string">2020 11 04 </i>
  <i name="time" type="string">04:39:54 </i>
 </generator>
 <incar>
  <i type="string" name="PREC">accurate</i>
  <i type="string" name="ALGO"> normal</i>
  <i type="logical" name="ADDGRID"> T  </i>
  <i type="int" name="ISPIN">     1</i>
  <i type="int" name="ICHARG">     1</i>
  <i type="int" name="NELM">   200</i>
  <i type="int" name="NELMIN">     8</i>
  <i name="EDIFF">      0.00000001</i>
  <i type="int" name="ISIF">     3</i>
  <i name="ENCUT">    650.00000000</i>
  <i type="logical" name="LREAL"> F  </i>
  <i type="int" name="ISMEAR">     0</i>
  <i name="SIGMA">      0.05000000</i>
  <i type="logical" name="LWAVE"> F  </i>
  <i type="logical" name="LASPH"> T  </i>
  <v type="int" name="KPOINT_BSE">    -1     0     0     0</v>
  <i type="int" name="NELM">   200</i>
  <i type="string" name="GGA"> ps</i>
  <i type="logical" name="LASPH"> T  </i>
 </incar>
 <structure name="primitive_cell" >
  <crystal>
   <varray name="basis" >
    <v>      17.67434300       0.00000000       0.02590756 </v>
    <v>       0.00000000      13.77516210       0.00000000 </v>
    <v>      -4.23144168       0.00000000      15.22594286 </v>
   </varray>
   <i name="volume">   3708.52383470 </i>
   <varray name="rec_basis" >
    <v>       0.05655615       0.00000000       0.01571752 </v>
    <v>       0.00000000       0.07259443       0.00000000 </v>
    <v>      -0.00009623       0.00000000       0.06565063 </v>
   </varray>
  </crystal>
  <varray name="positions" >
   <v>       0.08031353       0.12413882       0.07841825 </v>
   <v>       0.18318778       0.26122260       0.07996576 </v>
   <v>       0.19181221       0.01122260       0.17003418 </v>
   <v>       0.05608512       0.18037250       0.23288671 </v>
   <v>       0.18108512       0.06962750      -0.01648049 </v>
   <v>      -0.06891488       0.06962750      -0.01648049 </v>
   <v>       0.06891487      -0.06962750       0.01648043 </v>
   <v>       0.06681221       0.23877740      -0.07996582 </v>
   <v>      -0.06681222       0.26122260       0.07996576 </v>
   <v>      -0.05818779       0.01122260       0.17003418 </v>
   <v>       0.04468646       0.37413882       0.17158168 </v>
   <v>       0.04468646      -0.12586118       0.17158168 </v>
   <v>       0.20531353       0.12586118       0.32841825 </v>
   <v>      -0.04468647       0.12586118      -0.17158175 </v>
   <v>       0.19391487       0.31962750       0.26648043 </v>
   <v>       0.30608512       0.18037250       0.23351951 </v>
   <v>       0.05818778      -0.01122260      -0.17003424 </v>
   <v>       0.06891487       0.43037250       0.01648043 </v>
   <v>       0.33031353       0.12413882       0.07841825 </v>
   <v>      -0.16968647       0.12413882       0.07841825 </v>
   <v>       0.05818778      -0.01122260       0.32996576 </v>
   <v>      -0.08031354      -0.12413882      -0.07841832 </v>
   <v>       0.16968646      -0.12413882      -0.07841832 </v>
   <v>      -0.08031354       0.37586118      -0.07841832 </v>
   <v>       0.16968646       0.37586118      -0.07841832 </v>
   <v>      -0.18318779       0.23877740      -0.07996582 </v>
   <v>      -0.04468647       0.12586118       0.32841825 </v>
   <v>       0.20531353       0.12586118      -0.17158175 </v>
   <v>       0.29468646       0.37413882       0.17158168 </v>
   <v>       0.29468646      -0.12586118       0.17158168 </v>
   <v>      -0.05608513       0.31962750       0.26648043 </v>
   <v>       0.30818778      -0.01122260       0.32996576 </v>
   <v>      -0.18108513      -0.06962750       0.01648043 </v>
   <v>       0.19391487      -0.18037250       0.26648043 </v>
   <v>       0.31891487      -0.06962750       0.01648043 </v>
   <v>       0.18318778      -0.23877740       0.07996576 </v>
   <v>       0.05608512       0.18037250      -0.26648049 </v>
   <v>      -0.05608513       0.31962750      -0.23351957 </v>
   <v>      -0.06681222      -0.23877740       0.07996576 </v>
   <v>       0.31681221       0.23877740      -0.07996582 </v>
   <v>      -0.19181222      -0.01122260      -0.17003424 </v>
   <v>       0.06681221       0.23877740       0.42003418 </v>
   <v>       0.19181221      -0.48877740       0.17003418 </v>
   <v>       0.06681221      -0.26122260      -0.07996582 </v>
   <v>      -0.05608513      -0.18037250       0.26648043 </v>
   <v>      -0.19391488       0.18037250       0.23351951 </v>
   <v>       0.31681221       0.23877740       0.42003418 </v>
   <v>      -0.18108513       0.43037250       0.01648043 </v>
   <v>      -0.05818779      -0.48877740       0.17003418 </v>
   <v>       0.18108512       0.06962750       0.48351951 </v>
   <v>       0.31891487       0.43037250       0.01648043 </v>
   <v>       0.16968646      -0.12413882       0.42158168 </v>
   <v>       0.16968646       0.37586118       0.42158168 </v>
   <v>      -0.19391488       0.18037250      -0.26648049 </v>
   <v>       0.05818778       0.48877740      -0.17003424 </v>
   <v>       0.44181221       0.01122260       0.17003418 </v>
   <v>       0.19391487       0.31962750      -0.23351957 </v>
   <v>      -0.05608513      -0.18037250      -0.23351957 </v>
   <v>      -0.05818779       0.01122260      -0.32996582 </v>
   <v>       0.05818778       0.48877740       0.32996576 </v>
   <v>       0.43318778       0.26122260       0.07996576 </v>
   <v>      -0.20531354       0.37413882       0.17158168 </v>
   <v>      -0.20531354      -0.12586118       0.17158168 </v>
   <v>       0.30818778      -0.01122260      -0.17003424 </v>
   <v>       0.05608512      -0.31962750       0.23351951 </v>
   <v>       0.18108512      -0.43037250      -0.01648049 </v>
   <v>      -0.06891488      -0.43037250      -0.01648049 </v>
   <v>       0.45531353       0.12586118       0.32841825 </v>
   <v>      -0.29468647       0.12586118      -0.17158175 </v>
   <v>       0.43108512       0.06962750      -0.01648049 </v>
   <v>      -0.31891488       0.06962750      -0.01648049 </v>
   <v>       0.44391487       0.31962750       0.26648043 </v>
   <v>       0.08031353      -0.37586118       0.07841825 </v>
   <v>       0.30818778       0.48877740       0.32996576 </v>
   <v>      -0.18318779      -0.26122260      -0.07996582 </v>
   <v>       0.19391487      -0.18037250      -0.23351957 </v>
   <v>       0.04468646       0.37413882      -0.32841832 </v>
   <v>       0.04468646      -0.12586118      -0.32841832 </v>
   <v>      -0.19181222      -0.01122260       0.32996576 </v>
   <v>      -0.31681222       0.26122260       0.07996576 </v>
   <v>      -0.19181222       0.48877740      -0.17003424 </v>
   <v>       0.30608512      -0.31962750       0.23351951 </v>
   <v>       0.19181221       0.01122260      -0.32996582 </v>
   <v>       0.06891487      -0.06962750      -0.48351957 </v>
   <v>      -0.30818779       0.01122260       0.17003418 </v>
   <v>       0.31891487      -0.06962750      -0.48351957 </v>
   <v>      -0.08031354      -0.12413882       0.42158168 </v>
   <v>       0.31681221      -0.26122260      -0.07996582 </v>
   <v>      -0.06891488       0.06962750       0.48351951 </v>
   <v>       0.44391487      -0.18037250       0.26648043 </v>
   <v>      -0.08031354       0.37586118       0.42158168 </v>
   <v>       0.30608512       0.18037250      -0.26648049 </v>
   <v>       0.06681221      -0.26122260       0.42003418 </v>
   <v>       0.43108512       0.06962750       0.48351951 </v>
   <v>       0.41968646      -0.12413882       0.42158168 </v>
   <v>       0.41968646       0.37586118       0.42158168 </v>
   <v>      -0.30608513       0.31962750      -0.23351957 </v>
   <v>      -0.33031354      -0.12413882      -0.07841832 </v>
   <v>      -0.33031354       0.37586118      -0.07841832 </v>
   <v>      -0.20531354       0.37413882      -0.32841832 </v>
   <v>      -0.20531354      -0.12586118      -0.32841832 </v>
   <v>      -0.06681222       0.26122260      -0.42003424 </v>
   <v>       0.41968646      -0.12413882      -0.07841832 </v>
   <v>       0.18318778       0.26122260      -0.42003424 </v>
   <v>       0.41968646       0.37586118      -0.07841832 </v>
   <v>       0.08031353       0.12413882      -0.42158175 </v>
   <v>       0.31681221      -0.26122260       0.42003418 </v>
   <v>       0.20531353      -0.37413882       0.32841825 </v>
   <v>      -0.04468647      -0.37413882      -0.17158175 </v>
   <v>       0.33031353       0.12413882      -0.42158175 </v>
   <v>      -0.16968647       0.12413882      -0.42158175 </v>
   <v>       0.43318778      -0.23877740       0.07996576 </v>
   <v>       0.30818778       0.48877740      -0.17003424 </v>
   <v>       0.05608512      -0.31962750      -0.26648049 </v>
   <v>      -0.44391488       0.18037250       0.23351951 </v>
   <v>       0.44181221      -0.48877740       0.17003418 </v>
   <v>       0.06891487       0.43037250      -0.48351957 </v>
   <v>      -0.18318779       0.23877740       0.42003418 </v>
   <v>       0.33031353      -0.37586118       0.07841825 </v>
   <v>      -0.16968647      -0.37586118       0.07841825 </v>
   <v>      -0.30818779       0.01122260      -0.32996582 </v>
   <v>      -0.05818779      -0.48877740      -0.32996582 </v>
   <v>       0.31891487       0.43037250      -0.48351957 </v>
   <v>      -0.30608513      -0.18037250      -0.23351957 </v>
   <v>      -0.04468647      -0.37413882       0.32841825 </v>
   <v>       0.20531353      -0.37413882      -0.17158175 </v>
   <v>      -0.44181222      -0.01122260       0.32996576 </v>
   <v>      -0.19391488      -0.31962750       0.23351951 </v>
   <v>      -0.29468647       0.12586118       0.32841825 </v>
   <v>       0.45531353       0.12586118      -0.17158175 </v>
   <v>      -0.30608513       0.31962750       0.26648043 </v>
   <v>      -0.19181222       0.48877740       0.32996576 </v>
   <v>      -0.31681222      -0.23877740       0.07996576 </v>
   <v>      -0.45531354       0.37413882       0.17158168 </v>
   <v>      -0.45531354      -0.12586118       0.17158168 </v>
   <v>       0.18108512      -0.43037250       0.48351951 </v>
   <v>      -0.19391488      -0.31962750      -0.26648049 </v>
   <v>      -0.41968647       0.12413882       0.07841825 </v>
   <v>       0.43318778       0.26122260      -0.42003424 </v>
   <v>      -0.43318779       0.23877740      -0.07996582 </v>
   <v>       0.29468646       0.37413882      -0.32841832 </v>
   <v>       0.29468646      -0.12586118      -0.32841832 </v>
   <v>       0.19181221      -0.48877740      -0.32996582 </v>
   <v>      -0.43318779       0.23877740       0.42003418 </v>
   <v>      -0.06681222      -0.23877740      -0.42003424 </v>
   <v>      -0.30818779      -0.48877740       0.17003418 </v>
   <v>       0.43108512      -0.43037250      -0.01648049 </v>
   <v>       0.18318778      -0.23877740      -0.42003424 </v>
   <v>      -0.30608513      -0.18037250       0.26648043 </v>
   <v>      -0.31891488      -0.43037250      -0.01648049 </v>
   <v>      -0.44181222      -0.01122260      -0.17003424 </v>
   <v>      -0.43108513      -0.06962750       0.01648043 </v>
   <v>      -0.31681222       0.26122260      -0.42003424 </v>
   <v>      -0.18108513      -0.06962750      -0.48351957 </v>
   <v>      -0.44391488       0.18037250      -0.26648049 </v>
   <v>       0.44391487       0.31962750      -0.23351957 </v>
   <v>      -0.18318779      -0.26122260       0.42003418 </v>
   <v>       0.45531353      -0.37413882       0.32841825 </v>
   <v>      -0.29468647      -0.37413882      -0.17158175 </v>
   <v>      -0.30818779      -0.48877740      -0.32996582 </v>
   <v>      -0.44181222       0.48877740       0.32996576 </v>
   <v>       0.30608512      -0.31962750      -0.26648049 </v>
   <v>      -0.06891488      -0.43037250       0.48351951 </v>
   <v>      -0.43108513       0.43037250       0.01648043 </v>
   <v>       0.43108512      -0.43037250       0.48351951 </v>
   <v>      -0.18108513       0.43037250      -0.48351957 </v>
   <v>      -0.43108513      -0.06962750      -0.48351957 </v>
   <v>       0.44181221       0.01122260      -0.32996582 </v>
   <v>       0.44391487      -0.18037250      -0.23351957 </v>
   <v>       0.43318778      -0.23877740      -0.42003424 </v>
   <v>      -0.44391488      -0.31962750       0.23351951 </v>
   <v>      -0.41968647       0.12413882      -0.42158175 </v>
   <v>      -0.31891488       0.06962750       0.48351951 </v>
   <v>      -0.43318779      -0.26122260      -0.07996582 </v>
   <v>      -0.44181222       0.48877740      -0.17003424 </v>
   <v>      -0.43318779      -0.26122260       0.42003418 </v>
   <v>      -0.31681222      -0.23877740      -0.42003424 </v>
   <v>      -0.43108513       0.43037250      -0.48351957 </v>
   <v>       0.08031353      -0.37586118      -0.42158175 </v>
   <v>      -0.45531354       0.37413882      -0.32841832 </v>
   <v>      -0.45531354      -0.12586118      -0.32841832 </v>
   <v>       0.33031353      -0.37586118      -0.42158175 </v>
   <v>      -0.16968647      -0.37586118      -0.42158175 </v>
   <v>      -0.33031354      -0.12413882       0.42158168 </v>
   <v>      -0.33031354       0.37586118       0.42158168 </v>
   <v>      -0.29468647      -0.37413882       0.32841825 </v>
   <v>       0.45531353      -0.37413882      -0.17158175 </v>
   <v>       0.44181221      -0.48877740      -0.32996582 </v>
   <v>      -0.41968647      -0.37586118       0.07841825 </v>
   <v>      -0.44391488      -0.31962750      -0.26648049 </v>
   <v>      -0.31891488      -0.43037250       0.48351951 </v>
   <v>      -0.41968647      -0.37586118      -0.42158175 </v>
  </varray>
 </structure>
 <varray name="primitive_index" >
  <v type="int" >        1 </v>
  <v type="int" >       81 </v>
  <v type="int" >       65 </v>
  <v type="int" >      129 </v>
  <v type="int" >      185 </v>
  <v type="int" >      188 </v>
  <v type="int" >      149 </v>
  <v type="int" >      121 </v>
  <v type="int" >       84 </v>
  <v type="int" >       68 </v>
  <v type="int" >       17 </v>
  <v type="int" >       21 </v>
  <v type="int" >       49 </v>
  <v type="int" >       60 </v>
  <v type="int" >      161 </v>
  <v type="int" >      130 </v>
  <v type="int" >      109 </v>
  <v type="int" >      145 </v>
  <v type="int" >        2 </v>
  <v type="int" >        4 </v>
  <v type="int" >      101 </v>
  <v type="int" >       48 </v>
  <v type="int" >       45 </v>
  <v type="int" >       44 </v>
  <v type="int" >       41 </v>
  <v type="int" >      124 </v>
  <v type="int" >       52 </v>
  <v type="int" >       57 </v>
  <v type="int" >       18 </v>
  <v type="int" >       22 </v>
  <v type="int" >      164 </v>
  <v type="int" >      102 </v>
  <v type="int" >      152 </v>
  <v type="int" >      165 </v>
  <v type="int" >      150 </v>
  <v type="int" >       85 </v>
  <v type="int" >      137 </v>
  <v type="int" >      172 </v>
  <v type="int" >       88 </v>
  <v type="int" >      122 </v>
  <v type="int" >      112 </v>
  <v type="int" >      113 </v>
  <v type="int" >       69 </v>
  <v type="int" >      125 </v>
  <v type="int" >      168 </v>
  <v type="int" >      132 </v>
  <v type="int" >      114 </v>
  <v type="int" >      148 </v>
  <v type="int" >       72 </v>
  <v type="int" >      177 </v>
  <v type="int" >      146 </v>
  <v type="int" >       37 </v>
  <v type="int" >       33 </v>
  <v type="int" >      140 </v>
  <v type="int" >      105 </v>
  <v type="int" >       66 </v>
  <v type="int" >      169 </v>
  <v type="int" >      176 </v>
  <v type="int" >       76 </v>
  <v type="int" >       97 </v>
  <v type="int" >       82 </v>
  <v type="int" >       20 </v>
  <v type="int" >       24 </v>
  <v type="int" >      110 </v>
  <v type="int" >      133 </v>
  <v type="int" >      189 </v>
  <v type="int" >      192 </v>
  <v type="int" >       50 </v>
  <v type="int" >       59 </v>
  <v type="int" >      186 </v>
  <v type="int" >      187 </v>
  <v type="int" >      162 </v>
  <v type="int" >        5 </v>
  <v type="int" >       98 </v>
  <v type="int" >      128 </v>
  <v type="int" >      173 </v>
  <v type="int" >       25 </v>
  <v type="int" >       29 </v>
  <v type="int" >      104 </v>
  <v type="int" >       83 </v>
  <v type="int" >      108 </v>
  <v type="int" >      134 </v>
  <v type="int" >       73 </v>
  <v type="int" >      157 </v>
  <v type="int" >       67 </v>
  <v type="int" >      158 </v>
  <v type="int" >       40 </v>
  <v type="int" >      126 </v>
  <v type="int" >      180 </v>
  <v type="int" >      166 </v>
  <v type="int" >       36 </v>
  <v type="int" >      138 </v>
  <v type="int" >      117 </v>
  <v type="int" >      178 </v>
  <v type="int" >       38 </v>
  <v type="int" >       34 </v>
  <v type="int" >      171 </v>
  <v type="int" >       47 </v>
  <v type="int" >       43 </v>
  <v type="int" >       28 </v>
  <v type="int" >       32 </v>
  <v type="int" >       92 </v>
  <v type="int" >       46 </v>
  <v type="int" >       89 </v>
  <v type="int" >       42 </v>
  <v type="int" >        9 </v>
  <v type="int" >      118 </v>
  <v type="int" >       53 </v>
  <v type="int" >       64 </v>
  <v type="int" >       10 </v>
  <v type="int" >       12 </v>
  <v type="int" >       86 </v>
  <v type="int" >      106 </v>
  <v type="int" >      141 </v>
  <v type="int" >      131 </v>
  <v type="int" >       70 </v>
  <v type="int" >      153 </v>
  <v type="int" >      116 </v>
  <v type="int" >        6 </v>
  <v type="int" >        8 </v>
  <v type="int" >       75 </v>
  <v type="int" >       80 </v>
  <v type="int" >      154 </v>
  <v type="int" >      175 </v>
  <v type="int" >       56 </v>
  <v type="int" >       61 </v>
  <v type="int" >      103 </v>
  <v type="int" >      136 </v>
  <v type="int" >       51 </v>
  <v type="int" >       58 </v>
  <v type="int" >      163 </v>
  <v type="int" >      100 </v>
  <v type="int" >       87 </v>
  <v type="int" >       19 </v>
  <v type="int" >       23 </v>
  <v type="int" >      181 </v>
  <v type="int" >      144 </v>
  <v type="int" >        3 </v>
  <v type="int" >       90 </v>
  <v type="int" >      123 </v>
  <v type="int" >       26 </v>
  <v type="int" >       30 </v>
  <v type="int" >       77 </v>
  <v type="int" >      115 </v>
  <v type="int" >       96 </v>
  <v type="int" >       71 </v>
  <v type="int" >      190 </v>
  <v type="int" >       93 </v>
  <v type="int" >      167 </v>
  <v type="int" >      191 </v>
  <v type="int" >      111 </v>
  <v type="int" >      151 </v>
  <v type="int" >       91 </v>
  <v type="int" >      160 </v>
  <v type="int" >      139 </v>
  <v type="int" >      170 </v>
  <v type="int" >      120 </v>
  <v type="int" >       54 </v>
  <v type="int" >       63 </v>
  <v type="int" >       79 </v>
  <v type="int" >       99 </v>
  <v type="int" >      142 </v>
  <v type="int" >      184 </v>
  <v type="int" >      147 </v>
  <v type="int" >      182 </v>
  <v type="int" >      156 </v>
  <v type="int" >      159 </v>
  <v type="int" >       74 </v>
  <v type="int" >      174 </v>
  <v type="int" >       94 </v>
  <v type="int" >      135 </v>
  <v type="int" >       11 </v>
  <v type="int" >      179 </v>
  <v type="int" >      127 </v>
  <v type="int" >      107 </v>
  <v type="int" >      119 </v>
  <v type="int" >       95 </v>
  <v type="int" >      155 </v>
  <v type="int" >       13 </v>
  <v type="int" >       27 </v>
  <v type="int" >       31 </v>
  <v type="int" >       14 </v>
  <v type="int" >       16 </v>
  <v type="int" >       39 </v>
  <v type="int" >       35 </v>
  <v type="int" >       55 </v>
  <v type="int" >       62 </v>
  <v type="int" >       78 </v>
  <v type="int" >        7 </v>
  <v type="int" >      143 </v>
  <v type="int" >      183 </v>
  <v type="int" >       15 </v>
 </varray>
 <kpoints>
  <generation param="Gamma">
   <v type="int" name="divisions">       2        2        2 </v>
   <v name="usershift">      0.00000000       0.00000000       0.00000000 </v>
   <v name="genvec1">      0.50000000       0.00000000       0.00000000 </v>
   <v name="genvec2">      0.00000000       0.50000000       0.00000000 </v>
   <v name="genvec3">      0.00000000       0.00000000       0.50000000 </v>
   <v name="shift">      0.00000000       0.00000000       0.00000000 </v>
  </generation>
  <varray name="kpointlist" >
   <v>       0.00000000       0.00000000       0.00000000 </v>
   <v>       0.50000000       0.00000000      -0.00000000 </v>
   <v>       0.00000000       0.50000000       0.00000000 </v>
   <v>       0.50000000       0.50000000      -0.00000000 </v>
   <v>      -0.00000000       0.00000000       0.50000000 </v>
   <v>       0.50000000       0.00000000       0.50000000 </v>
   <v>      -0.00000000       0.50000000       0.50000000 </v>
   <v>       0.50000000       0.50000000       0.50000000 </v>
  </varray>
  <varray name="weights" >
   <v>       0.12500000 </v>
   <v>       0.12500000 </v>
   <v>       0.12500000 </v>
   <v>       0.12500000 </v>
   <v>       0.12500000 </v>
   <v>       0.12500000 </v>
   <v>       0.12500000 </v>
   <v>       0.12500000 </v>
  </varray>
 </kpoints>
 <parameters>
  <separator name="general" >
   <i type="string" name="SYSTEM">unknown system</i>
   <i type="logical" name="LCOMPAT"> F  </i>
  </separator>
  <separator name="electronic" >
   <i type="string" name="PREC">accura</i>
   <i name="ENMAX">    650.00000000</i>
   <i name="ENAUG">    446.84200000</i>
   <i name="EDIFF">      0.00000001</i>
   <i type="int" name="IALGO">    38</i>
   <i type="int" name="IWAVPR">    10</i>
   <i type="int" name="NBANDS">  1075</i>
   <i name="NELECT">   1792.00000000</i>
   <i type="int" name="TURBO">     0</i>
   <i type="int" name="IRESTART">     0</i>
   <i type="int" name="NREBOOT">     0</i>
   <i type="int" name="NMIN">     0</i>
   <i name="EREF">      0.00000000</i>
   <separator name="electronic smearing" >
    <i type="int" name="ISMEAR">     0</i>
    <i name="SIGMA">      0.05000000</i>
    <i name="KSPACING">      0.50000000</i>
    <i type="logical" name="KGAMMA"> T  </i>
   </separator>
   <separator name="electronic projectors" >
    <i type="logical" name="LREAL"> F  </i>
    <v name="ROPT">      0.00000000      0.00000000</v>
    <i type="int" name="LMAXPAW">  -100</i>
    <i type="int" name="LMAXMIX">     2</i>
    <i type="logical" name="NLSPLINE"> F  </i>
   </separator>
   <separator name="electronic startup" >
    <i type="int" name="ISTART">     0</i>
    <i type="int" name="ICHARG">     1</i>
    <i type="int" name="INIWAV">     1</i>
   </separator>
   <separator name="electronic spin" >
    <i type="int" name="ISPIN">     1</i>
    <i type="logical" name="LNONCOLLINEAR"> F  </i>
    <v name="MAGMOM">      1.00000000      1.00000000      1.00000000      1.00000000      1.00000000      1.00000000      1.00000000      1.00000000      1.00000000      1.00000000      1.00000000      1.00000000      1.00000000      1.00000000      1.00000000      1.00000000      1.00000000      1.00000000      1.00000000      1.00000000
      1.00000000      1.00000000      1.00000000      1.00000000      1.00000000      1.00000000      1.00000000      1.00000000      1.00000000      1.00000000      1.00000000      1.00000000      1.00000000      1.00000000      1.00000000      1.00000000      1.00000000      1.00000000      1.00000000      1.00000000
      1.00000000      1.00000000      1.00000000      1.00000000      1.00000000      1.00000000      1.00000000      1.00000000      1.00000000      1.00000000      1.00000000      1.00000000      1.00000000      1.00000000      1.00000000      1.00000000      1.00000000      1.00000000      1.00000000      1.00000000
      1.00000000      1.00000000      1.00000000      1.00000000      1.00000000      1.00000000      1.00000000      1.00000000      1.00000000      1.00000000      1.00000000      1.00000000      1.00000000      1.00000000      1.00000000      1.00000000      1.00000000      1.00000000      1.00000000      1.00000000
      1.00000000      1.00000000      1.00000000      1.00000000      1.00000000      1.00000000      1.00000000      1.00000000      1.00000000      1.00000000      1.00000000      1.00000000      1.00000000      1.00000000      1.00000000      1.00000000      1.00000000      1.00000000      1.00000000      1.00000000
      1.00000000      1.00000000      1.00000000      1.00000000      1.00000000      1.00000000      1.00000000      1.00000000      1.00000000      1.00000000      1.00000000      1.00000000      1.00000000      1.00000000      1.00000000      1.00000000      1.00000000      1.00000000      1.00000000      1.00000000
      1.00000000      1.00000000      1.00000000      1.00000000      1.00000000      1.00000000      1.00000000      1.00000000      1.00000000      1.00000000      1.00000000      1.00000000      1.00000000      1.00000000      1.00000000      1.00000000      1.00000000      1.00000000      1.00000000      1.00000000
      1.00000000      1.00000000      1.00000000      1.00000000      1.00000000      1.00000000      1.00000000      1.00000000      1.00000000      1.00000000      1.00000000      1.00000000      1.00000000      1.00000000      1.00000000      1.00000000      1.00000000      1.00000000      1.00000000      1.00000000
      1.00000000      1.00000000      1.00000000      1.00000000      1.00000000      1.00000000      1.00000000      1.00000000      1.00000000      1.00000000      1.00000000      1.00000000      1.00000000      1.00000000      1.00000000      1.00000000      1.00000000      1.00000000      1.00000000      1.00000000
      1.00000000      1.00000000      1.00000000      1.00000000      1.00000000      1.00000000      1.00000000      1.00000000      1.00000000      1.00000000      1.00000000      1.00000000</v>
    <i name="NUPDOWN">     -1.00000000</i>
    <i type="logical" name="LSORBIT"> F  </i>
    <v name="SAXIS">      0.00000000      0.00000000      1.00000000</v>
    <i type="logical" name="LSPIRAL"> F  </i>
    <v name="QSPIRAL">      0.00000000      0.00000000      0.00000000</v>
    <i type="logical" name="LZEROZ"> F  </i>
   </separator>
   <separator name="electronic exchange-correlation" >
    <i type="logical" name="LASPH"> T  </i>
    <i type="logical" name="LMETAGGA"> F  </i>
   </separator>
   <separator name="electronic convergence" >
    <i type="int" name="NELM">   200</i>
    <i type="int" name="NELMDL">     0</i>
    <i type="int" name="NELMIN">     8</i>
    <i name="ENINI">    650.00000000</i>
    <separator name="electronic convergence detail" >
     <i type="logical" name="LDIAG"> T  </i>
     <i type="logical" name="LSUBROT"> F  </i>
     <i name="WEIMIN">      0.00000000</i>
     <i name="EBREAK">      0.00000000</i>
     <i name="DEPER">      0.30000000</i>
     <i type="int" name="NRMM">     4</i>
     <i name="TIME">      0.40000000</i>
    </separator>
   </separator>
   <separator name="electronic mixer" >
    <i name="AMIX">      0.40000000</i>
    <i name="BMIX">      1.00000000</i>
    <i name="AMIN">      0.10000000</i>
    <i name="AMIX_MAG">      1.60000000</i>
    <i name="BMIX_MAG">      1.00000000</i>
    <separator name="electronic mixer details" >
     <i type="int" name="IMIX">     4</i>
     <i type="logical" name="MIXFIRST"> F  </i>
     <i type="int" name="MAXMIX">   -45</i>
     <i name="WC">    100.00000000</i>
     <i type="int" name="INIMIX">     1</i>
     <i type="int" name="MIXPRE">     1</i>
     <i type="int" name="MREMOVE">     5</i>
    </separator>
   </separator>
   <separator name="electronic dipolcorrection" >
    <i type="logical" name="LDIPOL"> F  </i>
    <i type="logical" name="LMONO"> F  </i>
    <i type="int" name="IDIPOL">     0</i>
    <i name="EPSILON">      1.00000000</i>
    <v name="DIPOL">   -100.00000000   -100.00000000   -100.00000000</v>
    <i name="EFIELD">      0.00000000</i>
   </separator>
  </separator>
  <separator name="grids" >
   <i type="int" name="NGX">   150</i>
   <i type="int" name="NGY">   120</i>
   <i type="int" name="NGZ">   140</i>
   <i type="int" name="NGXF">   300</i>
   <i type="int" name="NGYF">   240</i>
   <i type="int" name="NGZF">   280</i>
   <i type="logical" name="ADDGRID"> T  </i>
  </separator>
  <separator name="ionic" >
   <i type="int" name="NSW">     0</i>
   <i type="int" name="IBRION">    -1</i>
   <i type="int" name="MDALGO">     0</i>
   <i type="int" name="ISIF">     3</i>
   <i name="PSTRESS">      0.00000000</i>
   <i name="EDIFFG">      0.00000010</i>
   <i type="int" name="NFREE">     0</i>
   <i name="POTIM">      0.50000000</i>
   <i name="SMASS">     -3.00000000</i>
   <i name="SCALEE">      1.00000000</i>
  </separator>
  <separator name="ionic md" >
   <i name="TEBEG">      0.00010000</i>
   <i name="TEEND">      0.00010000</i>
   <i type="int" name="NBLOCK">     1</i>
   <i type="int" name="KBLOCK">     1</i>
   <i type="int" name="NPACO">   256</i>
   <i name="APACO">     16.00000000</i>
  </separator>
  <separator name="symmetry" >
   <i type="int" name="ISYM">     2</i>
   <i name="SYMPREC">      0.00001000</i>
  </separator>
  <separator name="dos" >
   <i type="int" name="LORBIT">     0</i>
   <v name="RWIGS">     -1.00000000     -1.00000000</v>
   <i type="int" name="NEDOS">   301</i>
   <i name="EMIN">     10.00000000</i>
   <i name="EMAX">    -10.00000000</i>
   <i name="EFERMI">      0.00000000</i>
  </separator>
  <separator name="writing" >
   <i type="int" name="NWRITE">     2</i>
   <i type="logical" name="LWAVE"> F  </i>
   <i type="logical" name="LDOWNSAMPLE"> F  </i>
   <i type="logical" name="LCHARG"> T  </i>
   <i type="logical" name="LPARD"> F  </i>
   <i type="logical" name="LVTOT"> F  </i>
   <i type="logical" name="LVHAR"> F  </i>
   <i type="logical" name="LELF"> F  </i>
   <i type="logical" name="LOPTICS"> F  </i>
   <v name="STM">      0.00000000      0.00000000      0.00000000      0.00000000      0.00000000      0.00000000      0.00000000</v>
  </separator>
  <separator name="performance" >
   <i type="int" name="NPAR">     1</i>
   <i type="int" name="NSIM">     4</i>
   <i type="int" name="NBLK">    -1</i>
   <i type="logical" name="LPLANE"> T  </i>
   <i type="logical" name="LSCALAPACK"> T  </i>
   <i type="logical" name="LSCAAWARE"> F  </i>
   <i type="logical" name="LSCALU"> F  </i>
   <i type="logical" name="LASYNC"> F  </i>
   <i type="logical" name="LORBITALREAL"> F  </i>
  </separator>
  <separator name="miscellaneous" >
   <i type="int" name="IDIOT">     3</i>
   <i type="int" name="ISPECIAL">     0</i>
   <i type="logical" name="LMUSIC"> F  </i>
   <v name="POMASS">     78.96000000    107.86800000</v>
   <v name="DARWINR">      0.00000000      0.00000000</v>
   <v name="DARWINV">      1.00000000      1.00000000</v>
   <i type="logical" name="LCORR"> T  </i>
  </separator>
  <i type="logical" name="GGA_COMPAT"> T  </i>
  <i type="logical" name="LBERRY"> F  </i>
  <i type="int" name="ICORELEVEL">     0</i>
  <i type="logical" name="LDAU"> F  </i>
  <i type="int" name="I_CONSTRAINED_M">     0</i>
  <separator name="electronic exchange-correlation" >
   <i type="string" name="GGA">PS</i>
   <i type="int" name="VOSKOWN">     0</i>
   <i type="logical" name="LHFCALC"> F  </i>
   <i type="string" name="PRECFOCK"></i>
   <i type="logical" name="LSYMGRAD"> F  </i>
   <i type="logical" name="LHFONE"> F  </i>
   <i type="logical" name="LRHFCALC"> F  </i>
   <i type="logical" name="LTHOMAS"> F  </i>
   <i type="logical" name="LMODELHF"> F  </i>
   <i name="ENCUT4O">     -1.00000000</i>
   <i type="int" name="EXXOEP">     0</i>
   <i type="int" name="FOURORBIT">     0</i>
   <i name="AEXX">      0.00000000</i>
   <i name="HFALPHA">      0.00000000</i>
   <i name="MCALPHA">      0.00000000</i>
   <i name="ALDAX">      1.00000000</i>
   <i name="AGGAX">      1.00000000</i>
   <i name="ALDAC">      1.00000000</i>
   <i name="AGGAC">      1.00000000</i>
   <i type="int" name="NKREDX">     1</i>
   <i type="int" name="NKREDY">     1</i>
   <i type="int" name="NKREDZ">     1</i>
   <i type="logical" name="SHIFTRED"> F  </i>
   <i type="logical" name="ODDONLY"> F  </i>
   <i type="logical" name="EVENONLY"> F  </i>
   <i type="int" name="LMAXFOCK">     0</i>
   <i type="int" name="NMAXFOCKAE">     0</i>
   <i type="logical" name="LFOCKAEDFT"> F  </i>
   <i name="HFSCREEN">      0.00000000</i>
   <i name="HFSCREENC">      0.00000000</i>
   <i type="int" name="NBANDSGWLOW">     0</i>
  </separator>
  <separator name="vdW DFT" >
   <i type="logical" name="LUSE_VDW"> F  </i>
   <i name="Zab_VDW">     -0.84910000</i>
   <i name="PARAM1">      0.12340000</i>
   <i name="PARAM2">      1.00000000</i>
   <i name="PARAM3">      0.00000000</i>
  </separator>
  <separator name="model GW" >
   <i type="int" name="MODEL_GW">     0</i>
   <i name="MODEL_EPS0">     11.58913698</i>
   <i name="MODEL_ALPHA">      1.00000000</i>
  </separator>
  <separator name="linear response parameters" >
   <i type="logical" name="LEPSILON"> F  </i>
   <i type="logical" name="LRPA"> F  </i>
   <i type="logical" name="LNABLA"> F  </i>
   <i type="logical" name="LVEL"> F  </i>
   <i type="int" name="KINTER">     0</i>
   <i name="CSHIFT">      0.10000000</i>
   <i name="OMEGAMAX">     -1.00000000</i>
   <i name="DEG_THRESHOLD">      0.00200000</i>
   <i name="RTIME">     -0.10000000</i>
   <i name="WPLASMAI">      0.00000000</i>
   <v name="DFIELD">      0.00000000      0.00000000      0.00000000</v>
   <v name="WPLASMA">      0.00000000      0.00000000      0.00000000      0.00000000      0.00000000      0.00000000      0.00000000      0.00000000      0.00000000</v>
  </separator>
  <separator name="orbital magnetization" >
   <i type="logical" name="NUCIND"> F  </i>
   <v name="MAGPOS">      0.00000000      0.00000000      0.00000000</v>
   <i type="logical" name="LNICSALL"> T  </i>
   <i type="logical" name="ORBITALMAG"> F  </i>
   <i type="logical" name="LMAGBLOCH"> F  </i>
   <i type="logical" name="LCHIMAG"> F  </i>
   <i type="logical" name="LGAUGE"> T  </i>
   <i type="int" name="MAGATOM">     0</i>
   <v name="MAGDIPOL">      0.00000000      0.00000000      0.00000000</v>
   <v name="AVECCONST">      0.00000000      0.00000000      0.00000000</v>
  </separator>
  <separator name="response functions" >
   <i type="logical" name="LADDER"> F  </i>
   <i type="logical" name="LRPAFORCE"> F  </i>
   <i type="logical" name="LFXC"> F  </i>
   <i type="logical" name="LHARTREE"> T  </i>
   <i type="int" name="IBSE">     0</i>
   <v type="int" name="KPOINT">    -1     0     0     0</v>
   <i type="logical" name="LTCTE"> F  </i>
   <i type="logical" name="LTETE"> F  </i>
   <i type="logical" name="LTRIPLET"> F  </i>
   <i type="logical" name="LFXCEPS"> F  </i>
   <i type="logical" name="LFXHEG"> F  </i>
   <i type="int" name="NATURALO">     2</i>
   <i type="logical" name="L2ORDER"> F  </i>
   <i type="logical" name="LMP2LT"> F  </i>
   <i type="logical" name="LUSEW"> F  </i>
   <i name="ENCUTGW">     -2.00000000</i>
   <i name="ENCUTGWSOFT">     -2.00000000</i>
   <i name="ENCUTLF">     -1.00000000</i>
   <i type="int" name="LMAXMP2">    -1</i>
   <i name="SCISSOR">      0.00000000</i>
   <i type="int" name="NOMEGA">     0</i>
   <i type="int" name="NOMEGAR">     0</i>
   <i type="int" name="NBANDSGW">    -1</i>
   <i type="int" name="NBANDSO">    -1</i>
   <i type="int" name="NBANDSV">    -1</i>
   <i type="int" name="NELM">   200</i>
   <i type="int" name="NELMHF">     1</i>
   <i type="int" name="DIM">     3</i>
   <i type="int" name="ANTIRES">     0</i>
   <i name="OMEGAMAX">    -30.00000000</i>
   <i name="OMEGAMIN">    -30.00000000</i>
   <i name="OMEGATL">   -200.00000000</i>
   <i type="int" name="OMEGAGRID">   140</i>
   <i name="CSHIFT">     -0.10000000</i>
   <i type="logical" name="SELFENERGY"> F  </i>
   <i type="logical" name="LSPECTRAL"> F  </i>
   <i type="logical" name="LSPECTRALGW"> F  </i>
   <i type="logical" name="LSINGLES"> F  </i>
   <i type="logical" name="LFERMIGW"> F  </i>
   <i type="logical" name="ODDONLYGW"> F  </i>
   <i type="logical" name="EVENONLYGW"> F  </i>
   <i type="int" name="NKREDLFX">     1</i>
   <i type="int" name="NKREDLFY">     1</i>
   <i type="int" name="NKREDLFZ">     1</i>
   <i type="int" name="MAXMEM">  2800</i>
   <i type="int" name="TELESCOPE">     0</i>
   <i type="int" name="TAUPAR">     1</i>
   <i type="int" name="OMEGAPAR">    -1</i>
   <i name="LAMBDA">      1.00000000</i>
  </separator>
  <separator name="External order field" >
   <i name="OFIELD_KAPPA">      0.00000000</i>
   <v name="OFIELD_K">      0.00000000      0.00000000      0.00000000</v>
   <i name="OFIELD_Q6_NEAR">      0.00000000</i>
   <i name="OFIELD_Q6_FAR">      0.00000000</i>
   <i name="OFIELD_A">      0.00000000</i>
  </separator>
 </parameters>
 <atominfo>
  <atoms>     192 </atoms>
  <types>       2 </types>
  <array name="atoms" >
   <dimension dim="1">ion</dimension>
   <field type="string">element</field>
   <field type="int">atomtype</field>
   <set>
    <rc><c>Se</c><c>   1</c></rc>
    <rc><c>Se</c><c>   1</c></rc>
    <rc><c>Se</c><c>   1</c></rc>
    <rc><c>Se</c><c>   1</c></rc>
    <rc><c>Se</c><c>   1</c></rc>
    <rc><c>Se</c><c>   1</c></rc>
    <rc><c>Se</c><c>   1</c></rc>
    <rc><c>Se</c><c>   1</c></rc>
    <rc><c>Se</c><c>   1</c></rc>
    <rc><c>Se</c><c>   1</c></rc>
    <rc><c>Se</c><c>   1</c></rc>
    <rc><c>Se</c><c>   1</c></rc>
    <rc><c>Se</c><c>   1</c></rc>
    <rc><c>Se</c><c>   1</c></rc>
    <rc><c>Se</c><c>   1</c></rc>
    <rc><c>Se</c><c>   1</c></rc>
    <rc><c>Se</c><c>   1</c></rc>
    <rc><c>Se</c><c>   1</c></rc>
    <rc><c>Se</c><c>   1</c></rc>
    <rc><c>Se</c><c>   1</c></rc>
    <rc><c>Se</c><c>   1</c></rc>
    <rc><c>Se</c><c>   1</c></rc>
    <rc><c>Se</c><c>   1</c></rc>
    <rc><c>Se</c><c>   1</c></rc>
    <rc><c>Se</c><c>   1</c></rc>
    <rc><c>Se</c><c>   1</c></rc>
    <rc><c>Se</c><c>   1</c></rc>
    <rc><c>Se</c><c>   1</c></rc>
    <rc><c>Se</c><c>   1</c></rc>
    <rc><c>Se</c><c>   1</c></rc>
    <rc><c>Se</c><c>   1</c></rc>
    <rc><c>Se</c><c>   1</c></rc>
    <rc><c>Se</c><c>   1</c></rc>
    <rc><c>Se</c><c>   1</c></rc>
    <rc><c>Se</c><c>   1</c></rc>
    <rc><c>Se</c><c>   1</c></rc>
    <rc><c>Se</c><c>   1</c></rc>
    <rc><c>Se</c><c>   1</c></rc>
    <rc><c>Se</c><c>   1</c></rc>
    <rc><c>Se</c><c>   1</c></rc>
    <rc><c>Se</c><c>   1</c></rc>
    <rc><c>Se</c><c>   1</c></rc>
    <rc><c>Se</c><c>   1</c></rc>
    <rc><c>Se</c><c>   1</c></rc>
    <rc><c>Se</c><c>   1</c></rc>
    <rc><c>Se</c><c>   1</c></rc>
    <rc><c>Se</c><c>   1</c></rc>
    <rc><c>Se</c><c>   1</c></rc>
    <rc><c>Se</c><c>   1</c></rc>
    <rc><c>Se</c><c>   1</c></rc>
    <rc><c>Se</c><c>   1</c></rc>
    <rc><c>Se</c><c>   1</c></rc>
    <rc><c>Se</c><c>   1</c></rc>
    <rc><c>Se</c><c>   1</c></rc>
    <rc><c>Se</c><c>   1</c></rc>
    <rc><c>Se</c><c>   1</c></rc>
    <rc><c>Se</c><c>   1</c></rc>
    <rc><c>Se</c><c>   1</c></rc>
    <rc><c>Se</c><c>   1</c></rc>
    <rc><c>Se</c><c>   1</c></rc>
    <rc><c>Se</c><c>   1</c></rc>
    <rc><c>Se</c><c>   1</c></rc>
    <rc><c>Se</c><c>   1</c></rc>
    <rc><c>Se</c><c>   1</c></rc>
    <rc><c>Ag</c><c>   2</c></rc>
    <rc><c>Ag</c><c>   2</c></rc>
    <rc><c>Ag</c><c>   2</c></rc>
    <rc><c>Ag</c><c>   2</c></rc>
    <rc><c>Ag</c><c>   2</c></rc>
    <rc><c>Ag</c><c>   2</c></rc>
    <rc><c>Ag</c><c>   2</c></rc>
    <rc><c>Ag</c><c>   2</c></rc>
    <rc><c>Ag</c><c>   2</c></rc>
    <rc><c>Ag</c><c>   2</c></rc>
    <rc><c>Ag</c><c>   2</c></rc>
    <rc><c>Ag</c><c>   2</c></rc>
    <rc><c>Ag</c><c>   2</c></rc>
    <rc><c>Ag</c><c>   2</c></rc>
    <rc><c>Ag</c><c>   2</c></rc>
    <rc><c>Ag</c><c>   2</c></rc>
    <rc><c>Ag</c><c>   2</c></rc>
    <rc><c>Ag</c><c>   2</c></rc>
    <rc><c>Ag</c><c>   2</c></rc>
    <rc><c>Ag</c><c>   2</c></rc>
    <rc><c>Ag</c><c>   2</c></rc>
    <rc><c>Ag</c><c>   2</c></rc>
    <rc><c>Ag</c><c>   2</c></rc>
    <rc><c>Ag</c><c>   2</c></rc>
    <rc><c>Ag</c><c>   2</c></rc>
    <rc><c>Ag</c><c>   2</c></rc>
    <rc><c>Ag</c><c>   2</c></rc>
    <rc><c>Ag</c><c>   2</c></rc>
    <rc><c>Ag</c><c>   2</c></rc>
    <rc><c>Ag</c><c>   2</c></rc>
    <rc><c>Ag</c><c>   2</c></rc>
    <rc><c>Ag</c><c>   2</c></rc>
    <rc><c>Ag</c><c>   2</c></rc>
    <rc><c>Ag</c><c>   2</c></rc>
    <rc><c>Ag</c><c>   2</c></rc>
    <rc><c>Ag</c><c>   2</c></rc>
    <rc><c>Ag</c><c>   2</c></rc>
    <rc><c>Ag</c><c>   2</c></rc>
    <rc><c>Ag</c><c>   2</c></rc>
    <rc><c>Ag</c><c>   2</c></rc>
    <rc><c>Ag</c><c>   2</c></rc>
    <rc><c>Ag</c><c>   2</c></rc>
    <rc><c>Ag</c><c>   2</c></rc>
    <rc><c>Ag</c><c>   2</c></rc>
    <rc><c>Ag</c><c>   2</c></rc>
    <rc><c>Ag</c><c>   2</c></rc>
    <rc><c>Ag</c><c>   2</c></rc>
    <rc><c>Ag</c><c>   2</c></rc>
    <rc><c>Ag</c><c>   2</c></rc>
    <rc><c>Ag</c><c>   2</c></rc>
    <rc><c>Ag</c><c>   2</c></rc>
    <rc><c>Ag</c><c>   2</c></rc>
    <rc><c>Ag</c><c>   2</c></rc>
    <rc><c>Ag</c><c>   2</c></rc>
    <rc><c>Ag</c><c>   2</c></rc>
    <rc><c>Ag</c><c>   2</c></rc>
    <rc><c>Ag</c><c>   2</c></rc>
    <rc><c>Ag</c><c>   2</c></rc>
    <rc><c>Ag</c><c>   2</c></rc>
    <rc><c>Ag</c><c>   2</c></rc>
    <rc><c>Ag</c><c>   2</c></rc>
    <rc><c>Ag</c><c>   2</c></rc>
    <rc><c>Ag</c><c>   2</c></rc>
    <rc><c>Ag</c><c>   2</c></rc>
    <rc><c>Ag</c><c>   2</c></rc>
    <rc><c>Ag</c><c>   2</c></rc>
    <rc><c>Ag</c><c>   2</c></rc>
    <rc><c>Ag</c><c>   2</c></rc>
    <rc><c>Ag</c><c>   2</c></rc>
    <rc><c>Ag</c><c>   2</c></rc>
    <rc><c>Ag</c><c>   2</c></rc>
    <rc><c>Ag</c><c>   2</c></rc>
    <rc><c>Ag</c><c>   2</c></rc>
    <rc><c>Ag</c><c>   2</c></rc>
    <rc><c>Ag</c><c>   2</c></rc>
    <rc><c>Ag</c><c>   2</c></rc>
    <rc><c>Ag</c><c>   2</c></rc>
    <rc><c>Ag</c><c>   2</c></rc>
    <rc><c>Ag</c><c>   2</c></rc>
    <rc><c>Ag</c><c>   2</c></rc>
    <rc><c>Ag</c><c>   2</c></rc>
    <rc><c>Ag</c><c>   2</c></rc>
    <rc><c>Ag</c><c>   2</c></rc>
    <rc><c>Ag</c><c>   2</c></rc>
    <rc><c>Ag</c><c>   2</c></rc>
    <rc><c>Ag</c><c>   2</c></rc>
    <rc><c>Ag</c><c>   2</c></rc>
    <rc><c>Ag</c><c>   2</c></rc>
    <rc><c>Ag</c><c>   2</c></rc>
    <rc><c>Ag</c><c>   2</c></rc>
    <rc><c>Ag</c><c>   2</c></rc>
    <rc><c>Ag</c><c>   2</c></rc>
    <rc><c>Ag</c><c>   2</c></rc>
    <rc><c>Ag</c><c>   2</c></rc>
    <rc><c>Ag</c><c>   2</c></rc>
    <rc><c>Ag</c><c>   2</c></rc>
    <rc><c>Ag</c><c>   2</c></rc>
    <rc><c>Ag</c><c>   2</c></rc>
    <rc><c>Ag</c><c>   2</c></rc>
    <rc><c>Ag</c><c>   2</c></rc>
    <rc><c>Ag</c><c>   2</c></rc>
    <rc><c>Ag</c><c>   2</c></rc>
    <rc><c>Ag</c><c>   2</c></rc>
    <rc><c>Ag</c><c>   2</c></rc>
    <rc><c>Ag</c><c>   2</c></rc>
    <rc><c>Ag</c><c>   2</c></rc>
    <rc><c>Ag</c><c>   2</c></rc>
    <rc><c>Ag</c><c>   2</c></rc>
    <rc><c>Ag</c><c>   2</c></rc>
    <rc><c>Ag</c><c>   2</c></rc>
    <rc><c>Ag</c><c>   2</c></rc>
    <rc><c>Ag</c><c>   2</c></rc>
    <rc><c>Ag</c><c>   2</c></rc>
    <rc><c>Ag</c><c>   2</c></rc>
    <rc><c>Ag</c><c>   2</c></rc>
    <rc><c>Ag</c><c>   2</c></rc>
    <rc><c>Ag</c><c>   2</c></rc>
    <rc><c>Ag</c><c>   2</c></rc>
    <rc><c>Ag</c><c>   2</c></rc>
    <rc><c>Ag</c><c>   2</c></rc>
    <rc><c>Ag</c><c>   2</c></rc>
    <rc><c>Ag</c><c>   2</c></rc>
    <rc><c>Ag</c><c>   2</c></rc>
    <rc><c>Ag</c><c>   2</c></rc>
    <rc><c>Ag</c><c>   2</c></rc>
    <rc><c>Ag</c><c>   2</c></rc>
    <rc><c>Ag</c><c>   2</c></rc>
    <rc><c>Ag</c><c>   2</c></rc>
   </set>
  </array>
  <array name="atomtypes" >
   <dimension dim="1">type</dimension>
   <field type="int">atomspertype</field>
   <field type="string">element</field>
   <field>mass</field>
   <field>valence</field>
   <field type="string">pseudopotential</field>
   <set>
    <rc><c>  64</c><c>Se</c><c>     78.96000000</c><c>      6.00000000</c><c>  PAW_PBE Se 06Sep2000                  </c></rc>
    <rc><c> 128</c><c>Ag</c><c>    107.86800000</c><c>     11.00000000</c><c>  PAW_PBE Ag 02Apr2005                  </c></rc>
   </set>
  </array>
 </atominfo>
 <structure name="initialpos" >
  <crystal>
   <varray name="basis" >
    <v>      17.67434300       0.00000000       0.02590756 </v>
    <v>       0.00000000      13.77516210       0.00000000 </v>
    <v>      -4.23144168       0.00000000      15.22594286 </v>
   </varray>
   <i name="volume">   3708.52383470 </i>
   <varray name="rec_basis" >
    <v>       0.05655615       0.00000000       0.01571752 </v>
    <v>       0.00000000       0.07259443       0.00000000 </v>
    <v>      -0.00009623       0.00000000       0.06565063 </v>
   </varray>
  </crystal>
  <varray name="positions" >
   <v>       0.08031353       0.12413882       0.07841826 </v>
   <v>       0.33031353       0.12413882       0.07841826 </v>
   <v>       0.58031353       0.12413882       0.07841826 </v>
   <v>       0.83031353       0.12413882       0.07841826 </v>
   <v>       0.08031353       0.62413882       0.07841826 </v>
   <v>       0.33031353       0.62413882       0.07841826 </v>
   <v>       0.58031353       0.62413882       0.07841826 </v>
   <v>       0.83031353       0.62413882       0.07841826 </v>
   <v>       0.08031353       0.12413882       0.57841826 </v>
   <v>       0.33031353       0.12413882       0.57841826 </v>
   <v>       0.58031353       0.12413882       0.57841826 </v>
   <v>       0.83031353       0.12413882       0.57841826 </v>
   <v>       0.08031353       0.62413882       0.57841826 </v>
   <v>       0.33031353       0.62413882       0.57841826 </v>
   <v>       0.58031353       0.62413882       0.57841826 </v>
   <v>       0.83031353       0.62413882       0.57841826 </v>
   <v>       0.04468646       0.37413882       0.17158168 </v>
   <v>       0.29468646       0.37413882       0.17158168 </v>
   <v>       0.54468646       0.37413882       0.17158168 </v>
   <v>       0.79468646       0.37413882       0.17158168 </v>
   <v>       0.04468646       0.87413882       0.17158168 </v>
   <v>       0.29468646       0.87413882       0.17158168 </v>
   <v>       0.54468646       0.87413882       0.17158168 </v>
   <v>       0.79468646       0.87413882       0.17158168 </v>
   <v>       0.04468646       0.37413882       0.67158168 </v>
   <v>       0.29468646       0.37413882       0.67158168 </v>
   <v>       0.54468646       0.37413882       0.67158168 </v>
   <v>       0.79468646       0.37413882       0.67158168 </v>
   <v>       0.04468646       0.87413882       0.67158168 </v>
   <v>       0.29468646       0.87413882       0.67158168 </v>
   <v>       0.54468646       0.87413882       0.67158168 </v>
   <v>       0.79468646       0.87413882       0.67158168 </v>
   <v>       0.16968646       0.37586118       0.42158168 </v>
   <v>       0.41968646       0.37586118       0.42158168 </v>
   <v>       0.66968646       0.37586118       0.42158168 </v>
   <v>       0.91968646       0.37586118       0.42158168 </v>
   <v>       0.16968646       0.87586118       0.42158168 </v>
   <v>       0.41968646       0.87586118       0.42158168 </v>
   <v>       0.66968646       0.87586118       0.42158168 </v>
   <v>       0.91968646       0.87586118       0.42158168 </v>
   <v>       0.16968646       0.37586118       0.92158168 </v>
   <v>       0.41968646       0.37586118       0.92158168 </v>
   <v>       0.66968646       0.37586118       0.92158168 </v>
   <v>       0.91968646       0.37586118       0.92158168 </v>
   <v>       0.16968646       0.87586118       0.92158168 </v>
   <v>       0.41968646       0.87586118       0.92158168 </v>
   <v>       0.66968646       0.87586118       0.92158168 </v>
   <v>       0.91968646       0.87586118       0.92158168 </v>
   <v>       0.20531353       0.12586118       0.32841826 </v>
   <v>       0.45531353       0.12586118       0.32841826 </v>
   <v>       0.70531353       0.12586118       0.32841826 </v>
   <v>       0.95531353       0.12586118       0.32841826 </v>
   <v>       0.20531353       0.62586118       0.32841826 </v>
   <v>       0.45531353       0.62586118       0.32841826 </v>
   <v>       0.70531353       0.62586118       0.32841826 </v>
   <v>       0.95531353       0.62586118       0.32841826 </v>
   <v>       0.20531353       0.12586118       0.82841826 </v>
   <v>       0.45531353       0.12586118       0.82841826 </v>
   <v>       0.70531353       0.12586118       0.82841826 </v>
   <v>       0.95531353       0.12586118       0.82841826 </v>
   <v>       0.20531353       0.62586118       0.82841826 </v>
   <v>       0.45531353       0.62586118       0.82841826 </v>
   <v>       0.70531353       0.62586118       0.82841826 </v>
   <v>       0.95531353       0.62586118       0.82841826 </v>
   <v>       0.19181221       0.01122259       0.17003418 </v>
   <v>       0.44181221       0.01122259       0.17003418 </v>
   <v>       0.69181221       0.01122259       0.17003418 </v>
   <v>       0.94181221       0.01122259       0.17003418 </v>
   <v>       0.19181221       0.51122259       0.17003418 </v>
   <v>       0.44181221       0.51122259       0.17003418 </v>
   <v>       0.69181221       0.51122259       0.17003418 </v>
   <v>       0.94181221       0.51122259       0.17003418 </v>
   <v>       0.19181221       0.01122259       0.67003418 </v>
   <v>       0.44181221       0.01122259       0.67003418 </v>
   <v>       0.69181221       0.01122259       0.67003418 </v>
   <v>       0.94181221       0.01122259       0.67003418 </v>
   <v>       0.19181221       0.51122259       0.67003418 </v>
   <v>       0.44181221       0.51122259       0.67003418 </v>
   <v>       0.69181221       0.51122259       0.67003418 </v>
   <v>       0.94181221       0.51122259       0.67003418 </v>
   <v>       0.18318778       0.26122259       0.07996576 </v>
   <v>       0.43318778       0.26122259       0.07996576 </v>
   <v>       0.68318778       0.26122259       0.07996576 </v>
   <v>       0.93318778       0.26122259       0.07996576 </v>
   <v>       0.18318778       0.76122259       0.07996576 </v>
   <v>       0.43318778       0.76122259       0.07996576 </v>
   <v>       0.68318778       0.76122259       0.07996576 </v>
   <v>       0.93318778       0.76122259       0.07996576 </v>
   <v>       0.18318778       0.26122259       0.57996576 </v>
   <v>       0.43318778       0.26122259       0.57996576 </v>
   <v>       0.68318778       0.26122259       0.57996576 </v>
   <v>       0.93318778       0.26122259       0.57996576 </v>
   <v>       0.18318778       0.76122259       0.57996576 </v>
   <v>       0.43318778       0.76122259       0.57996576 </v>
   <v>       0.68318778       0.76122259       0.57996576 </v>
   <v>       0.93318778       0.76122259       0.57996576 </v>
   <v>       0.05818778       0.48877741       0.32996576 </v>
   <v>       0.30818778       0.48877741       0.32996576 </v>
   <v>       0.55818778       0.48877741       0.32996576 </v>
   <v>       0.80818778       0.48877741       0.32996576 </v>
   <v>       0.05818778       0.98877741       0.32996576 </v>
   <v>       0.30818778       0.98877741       0.32996576 </v>
   <v>       0.55818778       0.98877741       0.32996576 </v>
   <v>       0.80818778       0.98877741       0.32996576 </v>
   <v>       0.05818778       0.48877741       0.82996576 </v>
   <v>       0.30818778       0.48877741       0.82996576 </v>
   <v>       0.55818778       0.48877741       0.82996576 </v>
   <v>       0.80818778       0.48877741       0.82996576 </v>
   <v>       0.05818778       0.98877741       0.82996576 </v>
   <v>       0.30818778       0.98877741       0.82996576 </v>
   <v>       0.55818778       0.98877741       0.82996576 </v>
   <v>       0.80818778       0.98877741       0.82996576 </v>
   <v>       0.06681221       0.23877741       0.42003418 </v>
   <v>       0.31681221       0.23877741       0.42003418 </v>
   <v>       0.56681221       0.23877741       0.42003418 </v>
   <v>       0.81681221       0.23877741       0.42003418 </v>
   <v>       0.06681221       0.73877741       0.42003418 </v>
   <v>       0.31681221       0.73877741       0.42003418 </v>
   <v>       0.56681221       0.73877741       0.42003418 </v>
   <v>       0.81681221       0.73877741       0.42003418 </v>
   <v>       0.06681221       0.23877741       0.92003418 </v>
   <v>       0.31681221       0.23877741       0.92003418 </v>
   <v>       0.56681221       0.23877741       0.92003418 </v>
   <v>       0.81681221       0.23877741       0.92003418 </v>
   <v>       0.06681221       0.73877741       0.92003418 </v>
   <v>       0.31681221       0.73877741       0.92003418 </v>
   <v>       0.56681221       0.73877741       0.92003418 </v>
   <v>       0.81681221       0.73877741       0.92003418 </v>
   <v>       0.05608512       0.18037250       0.23288671 </v>
   <v>       0.30608512       0.18037250       0.23351950 </v>
   <v>       0.55608512       0.18037250       0.23351950 </v>
   <v>       0.80608512       0.18037250       0.23351950 </v>
   <v>       0.05608512       0.68037250       0.23351950 </v>
   <v>       0.30608512       0.68037250       0.23351950 </v>
   <v>       0.55608512       0.68037250       0.23351950 </v>
   <v>       0.80608512       0.68037250       0.23351950 </v>
   <v>       0.05608512       0.18037250       0.73351950 </v>
   <v>       0.30608512       0.18037250       0.73351950 </v>
   <v>       0.55608512       0.18037250       0.73351950 </v>
   <v>       0.80608512       0.18037250       0.73351950 </v>
   <v>       0.05608512       0.68037250       0.73351950 </v>
   <v>       0.30608512       0.68037250       0.73351950 </v>
   <v>       0.55608512       0.68037250       0.73351950 </v>
   <v>       0.80608512       0.68037250       0.73351950 </v>
   <v>       0.06891487       0.43037250       0.01648043 </v>
   <v>       0.31891487       0.43037250       0.01648043 </v>
   <v>       0.56891487       0.43037250       0.01648043 </v>
   <v>       0.81891487       0.43037250       0.01648043 </v>
   <v>       0.06891487       0.93037250       0.01648043 </v>
   <v>       0.31891487       0.93037250       0.01648043 </v>
   <v>       0.56891487       0.93037250       0.01648043 </v>
   <v>       0.81891487       0.93037250       0.01648043 </v>
   <v>       0.06891487       0.43037250       0.51648043 </v>
   <v>       0.31891487       0.43037250       0.51648043 </v>
   <v>       0.56891487       0.43037250       0.51648043 </v>
   <v>       0.81891487       0.43037250       0.51648043 </v>
   <v>       0.06891487       0.93037250       0.51648043 </v>
   <v>       0.31891487       0.93037250       0.51648043 </v>
   <v>       0.56891487       0.93037250       0.51648043 </v>
   <v>       0.81891487       0.93037250       0.51648043 </v>
   <v>       0.19391487       0.31962750       0.26648043 </v>
   <v>       0.44391487       0.31962750       0.26648043 </v>
   <v>       0.69391487       0.31962750       0.26648043 </v>
   <v>       0.94391487       0.31962750       0.26648043 </v>
   <v>       0.19391487       0.81962750       0.26648043 </v>
   <v>       0.44391487       0.81962750       0.26648043 </v>
   <v>       0.69391487       0.81962750       0.26648043 </v>
   <v>       0.94391487       0.81962750       0.26648043 </v>
   <v>       0.19391487       0.31962750       0.76648043 </v>
   <v>       0.44391487       0.31962750       0.76648043 </v>
   <v>       0.69391487       0.31962750       0.76648043 </v>
   <v>       0.94391487       0.31962750       0.76648043 </v>
   <v>       0.19391487       0.81962750       0.76648043 </v>
   <v>       0.44391487       0.81962750       0.76648043 </v>
   <v>       0.69391487       0.81962750       0.76648043 </v>
   <v>       0.94391487       0.81962750       0.76648043 </v>
   <v>       0.18108512       0.06962750       0.48351950 </v>
   <v>       0.43108512       0.06962750       0.48351950 </v>
   <v>       0.68108512       0.06962750       0.48351950 </v>
   <v>       0.93108512       0.06962750       0.48351950 </v>
   <v>       0.18108512       0.56962750       0.48351950 </v>
   <v>       0.43108512       0.56962750       0.48351950 </v>
   <v>       0.68108512       0.56962750       0.48351950 </v>
   <v>       0.93108512       0.56962750       0.48351950 </v>
   <v>       0.18108512       0.06962750       0.98351950 </v>
   <v>       0.43108512       0.06962750       0.98351950 </v>
   <v>       0.68108512       0.06962750       0.98351950 </v>
   <v>       0.93108512       0.06962750       0.98351950 </v>
   <v>       0.18108512       0.56962750       0.98351950 </v>
   <v>       0.43108512       0.56962750       0.98351950 </v>
   <v>       0.68108512       0.56962750       0.98351950 </v>
   <v>       0.93108512       0.56962750       0.98351950 </v>
  </varray>
 </structure>
 <calculation>
  <scstep>
   <time name="dav"> 1911.90 1916.78</time>
   <time name="total"> 1916.62 1921.51</time>
   <energy>
    <i name="alphaZ">   6580.02941619 </i>
    <i name="ewald">-132336.70384028 </i>
    <i name="hartreedc"> -32543.72212258 </i>
    <i name="XCdc">  -1230.85704592 </i>
    <i name="pawpsdc"> 163058.89803092 </i>
    <i name="pawaedc">-156650.78792849 </i>
    <i name="eentropy">     -0.05498403 </i>
    <i name="bandstr">  18043.24967485 </i>
    <i name="atom"> 149175.97080046 </i>
    <i name="e_fr_energy">  14096.02200112 </i>
    <i name="e_wo_entrp">  14096.07698515 </i>
    <i name="e_0_energy">  14096.04949313 </i>
   </energy>
  </scstep>
  <scstep>
   <time name="dav"> 1971.43 1976.45</time>
   <time name="total"> 1971.44 1976.46</time>
   <energy>
    <i name="e_fr_energy">    199.60407512 </i>
    <i name="e_wo_entrp">    199.61775164 </i>
    <i name="e_0_energy">    199.61091338 </i>
   </energy>
  </scstep>
  <scstep>
   <time name="dav"> 2073.82 2079.05</time>
   <time name="total"> 2073.82 2079.06</time>
   <energy>
    <i name="e_fr_energy">   -654.97364542 </i>
    <i name="e_wo_entrp">   -654.96678173 </i>
    <i name="e_0_energy">   -654.97021358 </i>
   </energy>
  </scstep>
  <scstep>
   <time name="dav"> 2042.05 2047.20</time>
   <time name="total"> 2042.06 2047.21</time>
   <energy>
    <i name="e_fr_energy">   -676.15531450 </i>
    <i name="e_wo_entrp">   -676.14763065 </i>
    <i name="e_0_energy">   -676.15147257 </i>
   </energy>
  </scstep>
  <scstep>
   <time name="dav"> 2073.69 2078.89</time>
   <time name="total"> 2100.99 2106.27</time>
   <energy>
    <i name="e_fr_energy">   -676.43104000 </i>
    <i name="e_wo_entrp">   -676.42335422 </i>
    <i name="e_0_energy">   -676.42719711 </i>
   </energy>
  </scstep>
  <scstep>
   <time name="dav"> 1995.72 2000.77</time>
   <time name="total"> 2026.06 2031.19</time>
   <energy>
    <i name="e_fr_energy">   -676.41960784 </i>
    <i name="e_wo_entrp">   -676.41193993 </i>
    <i name="e_0_energy">   -676.41577389 </i>
   </energy>
  </scstep>
  <scstep>
   <time name="dav"> 2236.69 2242.19</time>
   <time name="total"> 2270.68 2276.26</time>
   <energy>
    <i name="e_fr_energy">   -676.41998815 </i>
    <i name="e_wo_entrp">   -676.41232206 </i>
    <i name="e_0_energy">   -676.41615510 </i>
   </energy>
  </scstep>
  <scstep>
   <time name="dav"> 2223.72 2229.20</time>
   <time name="total"> 2257.94 2263.51</time>
   <energy>
    <i name="e_fr_energy">   -676.41999869 </i>
    <i name="e_wo_entrp">   -676.41233306 </i>
    <i name="e_0_energy">   -676.41616588 </i>
   </energy>
  </scstep>
  <scstep>
   <time name="dav"> 2222.57 2228.04</time>
   <time name="total"> 2257.66 2263.21</time>
   <energy>
    <i name="e_fr_energy">   -676.41999608 </i>
    <i name="e_wo_entrp">   -676.41233084 </i>
    <i name="e_0_energy">   -676.41616346 </i>
   </energy>
  </scstep>
  <scstep>
   <time name="dav"> 2211.66 2218.02</time>
   <time name="total"> 2246.82 2253.27</time>
   <energy>
    <i name="e_fr_energy">   -676.41999520 </i>
    <i name="e_wo_entrp">   -676.41232992 </i>
    <i name="e_0_energy">   -676.41616256 </i>
   </energy>
  </scstep>
  <scstep>
   <time name="dav"> 2230.84 2236.97</time>
   <time name="total"> 2265.75 2271.97</time>
   <energy>
    <i name="e_fr_energy">   -676.41999491 </i>
    <i name="e_wo_entrp">   -676.41232957 </i>
    <i name="e_0_energy">   -676.41616224 </i>
   </energy>
  </scstep>
  <scstep>
   <time name="dav"> 1663.27 1668.05</time>
   <time name="total"> 1668.19 1672.98</time>
   <energy>
    <i name="alphaZ">   6580.02941619 </i>
    <i name="ewald">-132336.70384028 </i>
    <i name="hartreedc"> -32543.76871757 </i>
    <i name="XCdc">  -1230.85611075 </i>
    <i name="pawpsdc"> 163059.05913065 </i>
    <i name="pawaedc">-156650.99177777 </i>
    <i name="eentropy">     -0.00766536 </i>
    <i name="bandstr">   3270.84876954 </i>
    <i name="atom"> 149175.97080046 </i>
    <i name="e_fr_energy">   -676.41999490 </i>
    <i name="e_wo_entrp">   -676.41232954 </i>
    <i name="e_0_energy">   -676.41616222 </i>
   </energy>
  </scstep>
  <structure>
   <crystal>
    <varray name="basis" >
     <v>      17.67434300       0.00000000       0.02590756 </v>
     <v>       0.00000000      13.77516210       0.00000000 </v>
     <v>      -4.23144168       0.00000000      15.22594286 </v>
    </varray>
    <i name="volume">   3708.52383470 </i>
    <varray name="rec_basis" >
     <v>       0.05655615       0.00000000       0.01571752 </v>
     <v>       0.00000000       0.07259443       0.00000000 </v>
     <v>      -0.00009623       0.00000000       0.06565063 </v>
    </varray>
   </crystal>
   <varray name="positions" >
    <v>       0.08031353       0.12413882       0.07841826 </v>
    <v>       0.33031353       0.12413882       0.07841826 </v>
    <v>       0.58031353       0.12413882       0.07841826 </v>
    <v>       0.83031353       0.12413882       0.07841826 </v>
    <v>       0.08031353       0.62413882       0.07841826 </v>
    <v>       0.33031353       0.62413882       0.07841826 </v>
    <v>       0.58031353       0.62413882       0.07841826 </v>
    <v>       0.83031353       0.62413882       0.07841826 </v>
    <v>       0.08031353       0.12413882       0.57841826 </v>
    <v>       0.33031353       0.12413882       0.57841826 </v>
    <v>       0.58031353       0.12413882       0.57841826 </v>
    <v>       0.83031353       0.12413882       0.57841826 </v>
    <v>       0.08031353       0.62413882       0.57841826 </v>
    <v>       0.33031353       0.62413882       0.57841826 </v>
    <v>       0.58031353       0.62413882       0.57841826 </v>
    <v>       0.83031353       0.62413882       0.57841826 </v>
    <v>       0.04468646       0.37413882       0.17158168 </v>
    <v>       0.29468646       0.37413882       0.17158168 </v>
    <v>       0.54468646       0.37413882       0.17158168 </v>
    <v>       0.79468646       0.37413882       0.17158168 </v>
    <v>       0.04468646       0.87413882       0.17158168 </v>
    <v>       0.29468646       0.87413882       0.17158168 </v>
    <v>       0.54468646       0.87413882       0.17158168 </v>
    <v>       0.79468646       0.87413882       0.17158168 </v>
    <v>       0.04468646       0.37413882       0.67158168 </v>
    <v>       0.29468646       0.37413882       0.67158168 </v>
    <v>       0.54468646       0.37413882       0.67158168 </v>
    <v>       0.79468646       0.37413882       0.67158168 </v>
    <v>       0.04468646       0.87413882       0.67158168 </v>
    <v>       0.29468646       0.87413882       0.67158168 </v>
    <v>       0.54468646       0.87413882       0.67158168 </v>
    <v>       0.79468646       0.87413882       0.67158168 </v>
    <v>       0.16968646       0.37586118       0.42158168 </v>
    <v>       0.41968646       0.37586118       0.42158168 </v>
    <v>       0.66968646       0.37586118       0.42158168 </v>
    <v>       0.91968646       0.37586118       0.42158168 </v>
    <v>       0.16968646       0.87586118       0.42158168 </v>
    <v>       0.41968646       0.87586118       0.42158168 </v>
    <v>       0.66968646       0.87586118       0.42158168 </v>
    <v>       0.91968646       0.87586118       0.42158168 </v>
    <v>       0.16968646       0.37586118       0.92158168 </v>
    <v>       0.41968646       0.37586118       0.92158168 </v>
    <v>       0.66968646       0.37586118       0.92158168 </v>
    <v>       0.91968646       0.37586118       0.92158168 </v>
    <v>       0.16968646       0.87586118       0.92158168 </v>
    <v>       0.41968646       0.87586118       0.92158168 </v>
    <v>       0.66968646       0.87586118       0.92158168 </v>
    <v>       0.91968646       0.87586118       0.92158168 </v>
    <v>       0.20531353       0.12586118       0.32841826 </v>
    <v>       0.45531353       0.12586118       0.32841826 </v>
    <v>       0.70531353       0.12586118       0.32841826 </v>
    <v>       0.95531353       0.12586118       0.32841826 </v>
    <v>       0.20531353       0.62586118       0.32841826 </v>
    <v>       0.45531353       0.62586118       0.32841826 </v>
    <v>       0.70531353       0.62586118       0.32841826 </v>
    <v>       0.95531353       0.62586118       0.32841826 </v>
    <v>       0.20531353       0.12586118       0.82841826 </v>
    <v>       0.45531353       0.12586118       0.82841826 </v>
    <v>       0.70531353       0.12586118       0.82841826 </v>
    <v>       0.95531353       0.12586118       0.82841826 </v>
    <v>       0.20531353       0.62586118       0.82841826 </v>
    <v>       0.45531353       0.62586118       0.82841826 </v>
    <v>       0.70531353       0.62586118       0.82841826 </v>
    <v>       0.95531353       0.62586118       0.82841826 </v>
    <v>       0.19181221       0.01122259       0.17003418 </v>
    <v>       0.44181221       0.01122259       0.17003418 </v>
    <v>       0.69181221       0.01122259       0.17003418 </v>
    <v>       0.94181221       0.01122259       0.17003418 </v>
    <v>       0.19181221       0.51122259       0.17003418 </v>
    <v>       0.44181221       0.51122259       0.17003418 </v>
    <v>       0.69181221       0.51122259       0.17003418 </v>
    <v>       0.94181221       0.51122259       0.17003418 </v>
    <v>       0.19181221       0.01122259       0.67003418 </v>
    <v>       0.44181221       0.01122259       0.67003418 </v>
    <v>       0.69181221       0.01122259       0.67003418 </v>
    <v>       0.94181221       0.01122259       0.67003418 </v>
    <v>       0.19181221       0.51122259       0.67003418 </v>
    <v>       0.44181221       0.51122259       0.67003418 </v>
    <v>       0.69181221       0.51122259       0.67003418 </v>
    <v>       0.94181221       0.51122259       0.67003418 </v>
    <v>       0.18318778       0.26122259       0.07996576 </v>
    <v>       0.43318778       0.26122259       0.07996576 </v>
    <v>       0.68318778       0.26122259       0.07996576 </v>
    <v>       0.93318778       0.26122259       0.07996576 </v>
    <v>       0.18318778       0.76122259       0.07996576 </v>
    <v>       0.43318778       0.76122259       0.07996576 </v>
    <v>       0.68318778       0.76122259       0.07996576 </v>
    <v>       0.93318778       0.76122259       0.07996576 </v>
    <v>       0.18318778       0.26122259       0.57996576 </v>
    <v>       0.43318778       0.26122259       0.57996576 </v>
    <v>       0.68318778       0.26122259       0.57996576 </v>
    <v>       0.93318778       0.26122259       0.57996576 </v>
    <v>       0.18318778       0.76122259       0.57996576 </v>
    <v>       0.43318778       0.76122259       0.57996576 </v>
    <v>       0.68318778       0.76122259       0.57996576 </v>
    <v>       0.93318778       0.76122259       0.57996576 </v>
    <v>       0.05818778       0.48877741       0.32996576 </v>
    <v>       0.30818778       0.48877741       0.32996576 </v>
    <v>       0.55818778       0.48877741       0.32996576 </v>
    <v>       0.80818778       0.48877741       0.32996576 </v>
    <v>       0.05818778       0.98877741       0.32996576 </v>
    <v>       0.30818778       0.98877741       0.32996576 </v>
    <v>       0.55818778       0.98877741       0.32996576 </v>
    <v>       0.80818778       0.98877741       0.32996576 </v>
    <v>       0.05818778       0.48877741       0.82996576 </v>
    <v>       0.30818778       0.48877741       0.82996576 </v>
    <v>       0.55818778       0.48877741       0.82996576 </v>
    <v>       0.80818778       0.48877741       0.82996576 </v>
    <v>       0.05818778       0.98877741       0.82996576 </v>
    <v>       0.30818778       0.98877741       0.82996576 </v>
    <v>       0.55818778       0.98877741       0.82996576 </v>
    <v>       0.80818778       0.98877741       0.82996576 </v>
    <v>       0.06681221       0.23877741       0.42003418 </v>
    <v>       0.31681221       0.23877741       0.42003418 </v>
    <v>       0.56681221       0.23877741       0.42003418 </v>
    <v>       0.81681221       0.23877741       0.42003418 </v>
    <v>       0.06681221       0.73877741       0.42003418 </v>
    <v>       0.31681221       0.73877741       0.42003418 </v>
    <v>       0.56681221       0.73877741       0.42003418 </v>
    <v>       0.81681221       0.73877741       0.42003418 </v>
    <v>       0.06681221       0.23877741       0.92003418 </v>
    <v>       0.31681221       0.23877741       0.92003418 </v>
    <v>       0.56681221       0.23877741       0.92003418 </v>
    <v>       0.81681221       0.23877741       0.92003418 </v>
    <v>       0.06681221       0.73877741       0.92003418 </v>
    <v>       0.31681221       0.73877741       0.92003418 </v>
    <v>       0.56681221       0.73877741       0.92003418 </v>
    <v>       0.81681221       0.73877741       0.92003418 </v>
    <v>       0.05608512       0.18037250       0.23288671 </v>
    <v>       0.30608512       0.18037250       0.23351950 </v>
    <v>       0.55608512       0.18037250       0.23351950 </v>
    <v>       0.80608512       0.18037250       0.23351950 </v>
    <v>       0.05608512       0.68037250       0.23351950 </v>
    <v>       0.30608512       0.68037250       0.23351950 </v>
    <v>       0.55608512       0.68037250       0.23351950 </v>
    <v>       0.80608512       0.68037250       0.23351950 </v>
    <v>       0.05608512       0.18037250       0.73351950 </v>
    <v>       0.30608512       0.18037250       0.73351950 </v>
    <v>       0.55608512       0.18037250       0.73351950 </v>
    <v>       0.80608512       0.18037250       0.73351950 </v>
    <v>       0.05608512       0.68037250       0.73351950 </v>
    <v>       0.30608512       0.68037250       0.73351950 </v>
    <v>       0.55608512       0.68037250       0.73351950 </v>
    <v>       0.80608512       0.68037250       0.73351950 </v>
    <v>       0.06891487       0.43037250       0.01648043 </v>
    <v>       0.31891487       0.43037250       0.01648043 </v>
    <v>       0.56891487       0.43037250       0.01648043 </v>
    <v>       0.81891487       0.43037250       0.01648043 </v>
    <v>       0.06891487       0.93037250       0.01648043 </v>
    <v>       0.31891487       0.93037250       0.01648043 </v>
    <v>       0.56891487       0.93037250       0.01648043 </v>
    <v>       0.81891487       0.93037250       0.01648043 </v>
    <v>       0.06891487       0.43037250       0.51648043 </v>
    <v>       0.31891487       0.43037250       0.51648043 </v>
    <v>       0.56891487       0.43037250       0.51648043 </v>
    <v>       0.81891487       0.43037250       0.51648043 </v>
    <v>       0.06891487       0.93037250       0.51648043 </v>
    <v>       0.31891487       0.93037250       0.51648043 </v>
    <v>       0.56891487       0.93037250       0.51648043 </v>
    <v>       0.81891487       0.93037250       0.51648043 </v>
    <v>       0.19391487       0.31962750       0.26648043 </v>
    <v>       0.44391487       0.31962750       0.26648043 </v>
    <v>       0.69391487       0.31962750       0.26648043 </v>
    <v>       0.94391487       0.31962750       0.26648043 </v>
    <v>       0.19391487       0.81962750       0.26648043 </v>
    <v>       0.44391487       0.81962750       0.26648043 </v>
    <v>       0.69391487       0.81962750       0.26648043 </v>
    <v>       0.94391487       0.81962750       0.26648043 </v>
    <v>       0.19391487       0.31962750       0.76648043 </v>
    <v>       0.44391487       0.31962750       0.76648043 </v>
    <v>       0.69391487       0.31962750       0.76648043 </v>
    <v>       0.94391487       0.31962750       0.76648043 </v>
    <v>       0.19391487       0.81962750       0.76648043 </v>
    <v>       0.44391487       0.81962750       0.76648043 </v>
    <v>       0.69391487       0.81962750       0.76648043 </v>
    <v>       0.94391487       0.81962750       0.76648043 </v>
    <v>       0.18108512       0.06962750       0.48351950 </v>
    <v>       0.43108512       0.06962750       0.48351950 </v>
    <v>       0.68108512       0.06962750       0.48351950 </v>
    <v>       0.93108512       0.06962750       0.48351950 </v>
    <v>       0.18108512       0.56962750       0.48351950 </v>
    <v>       0.43108512       0.56962750       0.48351950 </v>
    <v>       0.68108512       0.56962750       0.48351950 </v>
    <v>       0.93108512       0.56962750       0.48351950 </v>
    <v>       0.18108512       0.06962750       0.98351950 </v>
    <v>       0.43108512       0.06962750       0.98351950 </v>
    <v>       0.68108512       0.06962750       0.98351950 </v>
    <v>       0.93108512       0.06962750       0.98351950 </v>
    <v>       0.18108512       0.56962750       0.98351950 </v>
    <v>       0.43108512       0.56962750       0.98351950 </v>
    <v>       0.68108512       0.56962750       0.98351950 </v>
    <v>       0.93108512       0.56962750       0.98351950 </v>
   </varray>
  </structure>
  <varray name="forces" >
   <v>       0.00245600      -0.00520906      -0.01829525 </v>
   <v>      -0.00391654       0.00045586      -0.00237686 </v>
   <v>      -0.00362479       0.00037914      -0.00245050 </v>
   <v>      -0.00384294       0.00011600      -0.00283572 </v>
   <v>      -0.00369442       0.00028105      -0.00239985 </v>
   <v>      -0.00362712       0.00032188      -0.00243968 </v>
   <v>      -0.00358977       0.00037585      -0.00244824 </v>
   <v>      -0.00354464       0.00038173      -0.00250736 </v>
   <v>      -0.00365465       0.00017223      -0.00181454 </v>
   <v>      -0.00363662       0.00030873      -0.00221827 </v>
   <v>      -0.00361138       0.00038467      -0.00241534 </v>
   <v>      -0.00363957       0.00037283      -0.00216992 </v>
   <v>      -0.00360638       0.00037662      -0.00239830 </v>
   <v>      -0.00360205       0.00038845      -0.00242051 </v>
   <v>      -0.00361541       0.00037029      -0.00241067 </v>
   <v>      -0.00367784       0.00036073      -0.00229628 </v>
   <v>       0.00431388       0.00518662       0.00240211 </v>
   <v>       0.00361139       0.00041361       0.00243899 </v>
   <v>       0.00358642       0.00037987       0.00242113 </v>
   <v>       0.00359282       0.00045130       0.00229504 </v>
   <v>       0.00384116       0.00037816       0.00222443 </v>
   <v>       0.00371872       0.00021206       0.00236158 </v>
   <v>       0.00361130       0.00037182       0.00241060 </v>
   <v>       0.00368458       0.00035097       0.00235123 </v>
   <v>       0.00356977       0.00039712       0.00257363 </v>
   <v>       0.00356559       0.00038366       0.00244325 </v>
   <v>       0.00357875       0.00037869       0.00244138 </v>
   <v>       0.00359643       0.00037478       0.00251745 </v>
   <v>       0.00357871       0.00032822       0.00261754 </v>
   <v>       0.00355158       0.00040126       0.00249099 </v>
   <v>       0.00359134       0.00036185       0.00244205 </v>
   <v>       0.00358874       0.00036958       0.00247816 </v>
   <v>       0.00322886      -0.00079504       0.00209491 </v>
   <v>       0.00359970      -0.00035707       0.00243154 </v>
   <v>       0.00356741      -0.00034115       0.00246383 </v>
   <v>       0.00364271      -0.00023527       0.00243529 </v>
   <v>       0.00365169      -0.00052500       0.00237324 </v>
   <v>       0.00353822      -0.00040001       0.00235919 </v>
   <v>       0.00354565      -0.00038813       0.00246419 </v>
   <v>       0.00348753      -0.00094930       0.00273622 </v>
   <v>       0.00365686      -0.00050872       0.00243974 </v>
   <v>       0.00358099      -0.00040299       0.00244785 </v>
   <v>       0.00361570      -0.00037643       0.00239351 </v>
   <v>       0.00358260      -0.00055671       0.00264871 </v>
   <v>       0.00338553      -0.00015627       0.00272422 </v>
   <v>       0.00357088      -0.00037712       0.00244935 </v>
   <v>       0.00360365      -0.00038471       0.00240966 </v>
   <v>       0.00364386      -0.00031319       0.00243759 </v>
   <v>      -0.00719512       0.00087284      -0.00329674 </v>
   <v>      -0.00351341      -0.00034448      -0.00246475 </v>
   <v>      -0.00399712      -0.00030087      -0.00248220 </v>
   <v>       0.00863693       0.00450705      -0.00727921 </v>
   <v>      -0.00353072      -0.00033787      -0.00250585 </v>
   <v>      -0.00357308      -0.00037607      -0.00245156 </v>
   <v>      -0.00361219      -0.00035029      -0.00245492 </v>
   <v>      -0.00343679      -0.00041916      -0.00259976 </v>
   <v>      -0.00372710      -0.00023326      -0.00227154 </v>
   <v>      -0.00359773      -0.00034876      -0.00237250 </v>
   <v>      -0.00359593      -0.00035518      -0.00245554 </v>
   <v>      -0.00321409      -0.00031085      -0.00171254 </v>
   <v>      -0.00368969      -0.00031779      -0.00233862 </v>
   <v>      -0.00361492      -0.00037258      -0.00241738 </v>
   <v>      -0.00358579      -0.00037876      -0.00240432 </v>
   <v>      -0.00363249      -0.00041254      -0.00233873 </v>
   <v>       0.00090859      -0.00021713      -0.00052942 </v>
   <v>       0.00035810       0.00042093      -0.00066522 </v>
   <v>       0.00035779       0.00046306      -0.00069206 </v>
   <v>       0.00015706       0.00082507       0.00012630 </v>
   <v>       0.00045911       0.00050837      -0.00070169 </v>
   <v>       0.00040854       0.00046277      -0.00073815 </v>
   <v>       0.00040728       0.00043505      -0.00076036 </v>
   <v>      -0.00005071       0.00068160      -0.00058823 </v>
   <v>       0.00029471       0.00046299      -0.00089407 </v>
   <v>       0.00034918       0.00045938      -0.00079486 </v>
   <v>       0.00037481       0.00044595      -0.00078229 </v>
   <v>       0.00040877       0.00046049      -0.00089881 </v>
   <v>       0.00038001       0.00043958      -0.00079853 </v>
   <v>       0.00036906       0.00044672      -0.00076449 </v>
   <v>       0.00036089       0.00046044      -0.00076192 </v>
   <v>       0.00036968       0.00046036      -0.00079010 </v>
   <v>       0.00056830       0.00106728       0.00034400 </v>
   <v>      -0.00033073       0.00048939       0.00074238 </v>
   <v>      -0.00038875       0.00043870       0.00079355 </v>
   <v>      -0.00359556       0.00194832      -0.00222102 </v>
   <v>      -0.00034012       0.00044103       0.00079038 </v>
   <v>      -0.00035995       0.00045674       0.00076777 </v>
   <v>      -0.00037053       0.00045863       0.00077653 </v>
   <v>      -0.00037955       0.00045808       0.00074400 </v>
   <v>      -0.00046290       0.00035981       0.00058663 </v>
   <v>      -0.00037347       0.00043997       0.00073867 </v>
[...]
       <r>     2.7614   651.1992  1193.5762 </r>
       <r>     2.8332   687.6702  1242.9684 </r>
       <r>     2.9050   539.9404  1281.7499 </r>
       <r>     2.9769   465.1377  1315.1586 </r>
       <r>     3.0487   466.2600  1348.6480 </r>
       <r>     3.1205   443.7196  1380.5183 </r>
       <r>     3.1923   430.4578  1411.4362 </r>
       <r>     3.2642   333.6232  1435.3988 </r>
       <r>     3.3360   223.8513  1451.4770 </r>
       <r>     3.4078   179.7555  1464.3880 </r>
       <r>     3.4796   188.9735  1477.9612 </r>
       <r>     3.5515   191.5492  1491.7193 </r>
       <r>     3.6233   204.2193  1506.3874 </r>
       <r>     3.6951   173.0598  1518.8175 </r>
       <r>     3.7669   113.3275  1526.9573 </r>
       <r>     3.8388    93.4195  1533.6672 </r>
       <r>     3.9106   105.5075  1541.2453 </r>
       <r>     3.9824   118.9477  1549.7888 </r>
       <r>     4.0542    95.2401  1556.6295 </r>
       <r>     4.1261   110.0816  1564.5361 </r>
       <r>     4.1979   154.4505  1575.6296 </r>
       <r>     4.2697    88.8523  1582.0115 </r>
       <r>     4.3415    89.2067  1588.4188 </r>
       <r>     4.4134    93.6778  1595.1472 </r>
       <r>     4.4852    96.3761  1602.0695 </r>
       <r>     4.5570   155.0523  1613.2062 </r>
       <r>     4.6288   105.4249  1620.7784 </r>
       <r>     4.7007    95.7145  1627.6531 </r>
       <r>     4.7725   111.9816  1635.6963 </r>
       <r>     4.8443    82.3854  1641.6136 </r>
       <r>     4.9161   113.9166  1649.7957 </r>
       <r>     4.9880   172.8243  1662.2089 </r>
       <r>     5.0598   113.9648  1670.3945 </r>
       <r>     5.1316    71.6730  1675.5424 </r>
       <r>     5.2034    91.0144  1682.0796 </r>
       <r>     5.2753    79.2358  1687.7707 </r>
       <r>     5.3471   130.5698  1697.1490 </r>
       <r>     5.4189   144.3640  1707.5180 </r>
       <r>     5.4907   108.4881  1715.3102 </r>
       <r>     5.5626    69.4611  1720.2993 </r>
       <r>     5.6344   104.8966  1727.8335 </r>
       <r>     5.7062   147.6713  1738.4401 </r>
       <r>     5.7780   148.4464  1749.1023 </r>
       <r>     5.8499   103.5553  1756.5402 </r>
       <r>     5.9217   124.5377  1765.4852 </r>
       <r>     5.9935   108.7609  1773.2970 </r>
       <r>     6.0653    84.0222  1779.3319 </r>
       <r>     6.1372    55.2653  1783.3014 </r>
       <r>     6.2090    42.3368  1786.3423 </r>
       <r>     6.2808    34.7280  1788.8366 </r>
       <r>     6.3526    28.5015  1790.8837 </r>
       <r>     6.4245    11.4450  1791.7058 </r>
       <r>     6.4963     6.3186  1792.1596 </r>
       <r>     6.5681     2.2100  1792.3184 </r>
       <r>     6.6400     4.8556  1792.6671 </r>
       <r>     6.7118     2.4741  1792.8448 </r>
       <r>     6.7836     2.0496  1792.9920 </r>
       <r>     6.8554     2.7228  1793.1876 </r>
       <r>     6.9273    13.2291  1794.1378 </r>
       <r>     6.9991    14.7271  1795.1956 </r>
       <r>     7.0709     8.9768  1795.8403 </r>
       <r>     7.1427    13.0997  1796.7812 </r>
       <r>     7.2146    28.4620  1798.8255 </r>
       <r>     7.2864    28.3228  1800.8598 </r>
       <r>     7.3582    20.0644  1802.3009 </r>
       <r>     7.4300    33.0904  1804.6777 </r>
       <r>     7.5019    36.0582  1807.2676 </r>
       <r>     7.5737    39.2266  1810.0850 </r>
       <r>     7.6455    62.6640  1814.5859 </r>
       <r>     7.7173    66.3717  1819.3531 </r>
       <r>     7.7892    75.8419  1824.8005 </r>
       <r>     7.8610    69.2643  1829.7754 </r>
       <r>     7.9328    62.3068  1834.2506 </r>
       <r>     8.0046    59.3807  1838.5157 </r>
       <r>     8.0765    81.1579  1844.3449 </r>
       <r>     8.1483    80.9452  1850.1588 </r>
       <r>     8.2201    83.6783  1856.1690 </r>
       <r>     8.2919    68.3147  1861.0758 </r>
       <r>     8.3638    69.1786  1866.0446 </r>
       <r>     8.4356    75.9814  1871.5020 </r>
       <r>     8.5074    91.9056  1878.1031 </r>
       <r>     8.5792    65.1504  1882.7826 </r>
       <r>     8.6511    63.6684  1887.3556 </r>
       <r>     8.7229    82.5139  1893.2822 </r>
       <r>     8.7947    82.5679  1899.2127 </r>
       <r>     8.8665    49.5468  1902.7714 </r>
       <r>     8.9384    47.3158  1906.1699 </r>
       <r>     9.0102    38.9994  1908.9710 </r>
       <r>     9.0820    61.4993  1913.3882 </r>
       <r>     9.1538    86.5713  1919.6063 </r>
       <r>     9.2257    56.7751  1923.6842 </r>
       <r>     9.2975    48.8477  1927.1927 </r>
       <r>     9.3693    62.4993  1931.6817 </r>
       <r>     9.4411    65.8417  1936.4108 </r>
       <r>     9.5130    59.7594  1940.7031 </r>
       <r>     9.5848    42.3979  1943.7483 </r>
       <r>     9.6566    78.6136  1949.3948 </r>
       <r>     9.7284   113.1407  1957.5212 </r>
       <r>     9.8003    99.4358  1964.6632 </r>
       <r>     9.8721    83.7282  1970.6770 </r>
       <r>     9.9439    75.6341  1976.1095 </r>
       <r>    10.0157    56.3752  1980.1586 </r>
       <r>    10.0876    91.8683  1986.7571 </r>
       <r>    10.1594    86.0297  1992.9362 </r>
       <r>    10.2312   105.9602  2000.5469 </r>
       <r>    10.3031   110.4685  2008.4813 </r>
       <r>    10.3749   111.2006  2016.4684 </r>
       <r>    10.4467   107.5871  2024.1959 </r>
       <r>    10.5185    89.9576  2030.6571 </r>
       <r>    10.5904    68.9812  2035.6117 </r>
       <r>    10.6622    78.5060  2041.2505 </r>
       <r>    10.7340    65.2594  2045.9377 </r>
       <r>    10.8058    70.8420  2051.0260 </r>
       <r>    10.8777    74.2131  2056.3564 </r>
       <r>    10.9495    64.9487  2061.0214 </r>
       <r>    11.0213    61.1526  2065.4137 </r>
       <r>    11.0931   105.3569  2072.9810 </r>
       <r>    11.1650    92.9438  2079.6567 </r>
       <r>    11.2368    87.8528  2085.9668 </r>
       <r>    11.3086    88.5599  2092.3276 </r>
       <r>    11.3804    85.6400  2098.4788 </r>
       <r>    11.4523   117.9828  2106.9529 </r>
       <r>    11.5241   125.3676  2115.9575 </r>
       <r>    11.5959   117.5801  2124.4028 </r>
       <r>    11.6677    92.9264  2131.0773 </r>
       <r>    11.7396    64.8717  2135.7367 </r>
       <r>    11.8114    89.0815  2142.1350 </r>
       <r>    11.8832    35.4976  2144.6847 </r>
       <r>    11.9550    26.1761  2146.5648 </r>
       <r>    12.0269    12.1578  2147.4380 </r>
       <r>    12.0987    20.1006  2148.8817 </r>
       <r>    12.1705    10.4248  2149.6305 </r>
       <r>    12.2423     4.7420  2149.9711 </r>
       <r>    12.3142     0.4006  2149.9999 </r>
       <r>    12.3860     0.0016  2150.0000 </r>
       <r>    12.4578     0.0000  2150.0000 </r>
       <r>    12.5296     0.0000  2150.0000 </r>
       <r>    12.6015     0.0000  2150.0000 </r>
       <r>    12.6733     0.0000  2150.0000 </r>
       <r>    12.7451     0.0000  2150.0000 </r>
       <r>    12.8169     0.0000  2150.0000 </r>
       <r>    12.8888     0.0000  2150.0000 </r>
       <r>    12.9606     0.0000  2150.0000 </r>
       <r>    13.0324     0.0000  2150.0000 </r>
       <r>    13.1042     0.0000  2150.0000 </r>
       <r>    13.1761     0.0000  2150.0000 </r>
      </set>
     </set>
    </array>
   </total>
  </dos>
 </calculation>
 <structure name="finalpos" >
  <crystal>
   <varray name="basis" >
    <v>      17.67434300       0.00000000       0.02590756 </v>
    <v>       0.00000000      13.77516210       0.00000000 </v>
    <v>      -4.23144168       0.00000000      15.22594286 </v>
   </varray>
   <i name="volume">   3708.52383470 </i>
   <varray name="rec_basis" >
    <v>       0.05655615       0.00000000       0.01571752 </v>
    <v>       0.00000000       0.07259443       0.00000000 </v>
    <v>      -0.00009623       0.00000000       0.06565063 </v>
   </varray>
  </crystal>
  <varray name="positions" >
   <v>       0.08031353       0.12413882       0.07841826 </v>
   <v>       0.33031353       0.12413882       0.07841826 </v>
   <v>       0.58031353       0.12413882       0.07841826 </v>
   <v>       0.83031353       0.12413882       0.07841826 </v>
   <v>       0.08031353       0.62413882       0.07841826 </v>
   <v>       0.33031353       0.62413882       0.07841826 </v>
   <v>       0.58031353       0.62413882       0.07841826 </v>
   <v>       0.83031353       0.62413882       0.07841826 </v>
   <v>       0.08031353       0.12413882       0.57841826 </v>
   <v>       0.33031353       0.12413882       0.57841826 </v>
   <v>       0.58031353       0.12413882       0.57841826 </v>
   <v>       0.83031353       0.12413882       0.57841826 </v>
   <v>       0.08031353       0.62413882       0.57841826 </v>
   <v>       0.33031353       0.62413882       0.57841826 </v>
   <v>       0.58031353       0.62413882       0.57841826 </v>
   <v>       0.83031353       0.62413882       0.57841826 </v>
   <v>       0.04468646       0.37413882       0.17158168 </v>
   <v>       0.29468646       0.37413882       0.17158168 </v>
   <v>       0.54468646       0.37413882       0.17158168 </v>
   <v>       0.79468646       0.37413882       0.17158168 </v>
   <v>       0.04468646       0.87413882       0.17158168 </v>
   <v>       0.29468646       0.87413882       0.17158168 </v>
   <v>       0.54468646       0.87413882       0.17158168 </v>
   <v>       0.79468646       0.87413882       0.17158168 </v>
   <v>       0.04468646       0.37413882       0.67158168 </v>
   <v>       0.29468646       0.37413882       0.67158168 </v>
   <v>       0.54468646       0.37413882       0.67158168 </v>
   <v>       0.79468646       0.37413882       0.67158168 </v>
   <v>       0.04468646       0.87413882       0.67158168 </v>
   <v>       0.29468646       0.87413882       0.67158168 </v>
   <v>       0.54468646       0.87413882       0.67158168 </v>
   <v>       0.79468646       0.87413882       0.67158168 </v>
   <v>       0.16968646       0.37586118       0.42158168 </v>
   <v>       0.41968646       0.37586118       0.42158168 </v>
   <v>       0.66968646       0.37586118       0.42158168 </v>
   <v>       0.91968646       0.37586118       0.42158168 </v>
   <v>       0.16968646       0.87586118       0.42158168 </v>
   <v>       0.41968646       0.87586118       0.42158168 </v>
   <v>       0.66968646       0.87586118       0.42158168 </v>
   <v>       0.91968646       0.87586118       0.42158168 </v>
   <v>       0.16968646       0.37586118       0.92158168 </v>
   <v>       0.41968646       0.37586118       0.92158168 </v>
   <v>       0.66968646       0.37586118       0.92158168 </v>
   <v>       0.91968646       0.37586118       0.92158168 </v>
   <v>       0.16968646       0.87586118       0.92158168 </v>
   <v>       0.41968646       0.87586118       0.92158168 </v>
   <v>       0.66968646       0.87586118       0.92158168 </v>
   <v>       0.91968646       0.87586118       0.92158168 </v>
   <v>       0.20531353       0.12586118       0.32841826 </v>
   <v>       0.45531353       0.12586118       0.32841826 </v>
   <v>       0.70531353       0.12586118       0.32841826 </v>
   <v>       0.95531353       0.12586118       0.32841826 </v>
   <v>       0.20531353       0.62586118       0.32841826 </v>
   <v>       0.45531353       0.62586118       0.32841826 </v>
   <v>       0.70531353       0.62586118       0.32841826 </v>
   <v>       0.95531353       0.62586118       0.32841826 </v>
   <v>       0.20531353       0.12586118       0.82841826 </v>
   <v>       0.45531353       0.12586118       0.82841826 </v>
   <v>       0.70531353       0.12586118       0.82841826 </v>
   <v>       0.95531353       0.12586118       0.82841826 </v>
   <v>       0.20531353       0.62586118       0.82841826 </v>
   <v>       0.45531353       0.62586118       0.82841826 </v>
   <v>       0.70531353       0.62586118       0.82841826 </v>
   <v>       0.95531353       0.62586118       0.82841826 </v>
   <v>       0.19181221       0.01122259       0.17003418 </v>
   <v>       0.44181221       0.01122259       0.17003418 </v>
   <v>       0.69181221       0.01122259       0.17003418 </v>
   <v>       0.94181221       0.01122259       0.17003418 </v>
   <v>       0.19181221       0.51122259       0.17003418 </v>
   <v>       0.44181221       0.51122259       0.17003418 </v>
   <v>       0.69181221       0.51122259       0.17003418 </v>
   <v>       0.94181221       0.51122259       0.17003418 </v>
   <v>       0.19181221       0.01122259       0.67003418 </v>
   <v>       0.44181221       0.01122259       0.67003418 </v>
   <v>       0.69181221       0.01122259       0.67003418 </v>
   <v>       0.94181221       0.01122259       0.67003418 </v>
   <v>       0.19181221       0.51122259       0.67003418 </v>
   <v>       0.44181221       0.51122259       0.67003418 </v>
   <v>       0.69181221       0.51122259       0.67003418 </v>
   <v>       0.94181221       0.51122259       0.67003418 </v>
   <v>       0.18318778       0.26122259       0.07996576 </v>
   <v>       0.43318778       0.26122259       0.07996576 </v>
   <v>       0.68318778       0.26122259       0.07996576 </v>
   <v>       0.93318778       0.26122259       0.07996576 </v>
   <v>       0.18318778       0.76122259       0.07996576 </v>
   <v>       0.43318778       0.76122259       0.07996576 </v>
   <v>       0.68318778       0.76122259       0.07996576 </v>
   <v>       0.93318778       0.76122259       0.07996576 </v>
   <v>       0.18318778       0.26122259       0.57996576 </v>
   <v>       0.43318778       0.26122259       0.57996576 </v>
   <v>       0.68318778       0.26122259       0.57996576 </v>
   <v>       0.93318778       0.26122259       0.57996576 </v>
   <v>       0.18318778       0.76122259       0.57996576 </v>
   <v>       0.43318778       0.76122259       0.57996576 </v>
   <v>       0.68318778       0.76122259       0.57996576 </v>
   <v>       0.93318778       0.76122259       0.57996576 </v>
   <v>       0.05818778       0.48877741       0.32996576 </v>
   <v>       0.30818778       0.48877741       0.32996576 </v>
   <v>       0.55818778       0.48877741       0.32996576 </v>
   <v>       0.80818778       0.48877741       0.32996576 </v>
   <v>       0.05818778       0.98877741       0.32996576 </v>
   <v>       0.30818778       0.98877741       0.32996576 </v>
   <v>       0.55818778       0.98877741       0.32996576 </v>
   <v>       0.80818778       0.98877741       0.32996576 </v>
   <v>       0.05818778       0.48877741       0.82996576 </v>
   <v>       0.30818778       0.48877741       0.82996576 </v>
   <v>       0.55818778       0.48877741       0.82996576 </v>
   <v>       0.80818778       0.48877741       0.82996576 </v>
   <v>       0.05818778       0.98877741       0.82996576 </v>
   <v>       0.30818778       0.98877741       0.82996576 </v>
   <v>       0.55818778       0.98877741       0.82996576 </v>
   <v>       0.80818778       0.98877741       0.82996576 </v>
   <v>       0.06681221       0.23877741       0.42003418 </v>
   <v>       0.31681221       0.23877741       0.42003418 </v>
   <v>       0.56681221       0.23877741       0.42003418 </v>
   <v>       0.81681221       0.23877741       0.42003418 </v>
   <v>       0.06681221       0.73877741       0.42003418 </v>
   <v>       0.31681221       0.73877741       0.42003418 </v>
   <v>       0.56681221       0.73877741       0.42003418 </v>
   <v>       0.81681221       0.73877741       0.42003418 </v>
   <v>       0.06681221       0.23877741       0.92003418 </v>
   <v>       0.31681221       0.23877741       0.92003418 </v>
   <v>       0.56681221       0.23877741       0.92003418 </v>
   <v>       0.81681221       0.23877741       0.92003418 </v>
   <v>       0.06681221       0.73877741       0.92003418 </v>
   <v>       0.31681221       0.73877741       0.92003418 </v>
   <v>       0.56681221       0.73877741       0.92003418 </v>
   <v>       0.81681221       0.73877741       0.92003418 </v>
   <v>       0.05608512       0.18037250       0.23288671 </v>
   <v>       0.30608512       0.18037250       0.23351950 </v>
   <v>       0.55608512       0.18037250       0.23351950 </v>
   <v>       0.80608512       0.18037250       0.23351950 </v>
   <v>       0.05608512       0.68037250       0.23351950 </v>
   <v>       0.30608512       0.68037250       0.23351950 </v>
   <v>       0.55608512       0.68037250       0.23351950 </v>
   <v>       0.80608512       0.68037250       0.23351950 </v>
   <v>       0.05608512       0.18037250       0.73351950 </v>
   <v>       0.30608512       0.18037250       0.73351950 </v>
   <v>       0.55608512       0.18037250       0.73351950 </v>
   <v>       0.80608512       0.18037250       0.73351950 </v>
   <v>       0.05608512       0.68037250       0.73351950 </v>
   <v>       0.30608512       0.68037250       0.73351950 </v>
   <v>       0.55608512       0.68037250       0.73351950 </v>
   <v>       0.80608512       0.68037250       0.73351950 </v>
   <v>       0.06891487       0.43037250       0.01648043 </v>
   <v>       0.31891487       0.43037250       0.01648043 </v>
   <v>       0.56891487       0.43037250       0.01648043 </v>
   <v>       0.81891487       0.43037250       0.01648043 </v>
   <v>       0.06891487       0.93037250       0.01648043 </v>
   <v>       0.31891487       0.93037250       0.01648043 </v>
   <v>       0.56891487       0.93037250       0.01648043 </v>
   <v>       0.81891487       0.93037250       0.01648043 </v>
   <v>       0.06891487       0.43037250       0.51648043 </v>
   <v>       0.31891487       0.43037250       0.51648043 </v>
   <v>       0.56891487       0.43037250       0.51648043 </v>
   <v>       0.81891487       0.43037250       0.51648043 </v>
   <v>       0.06891487       0.93037250       0.51648043 </v>
   <v>       0.31891487       0.93037250       0.51648043 </v>
   <v>       0.56891487       0.93037250       0.51648043 </v>
   <v>       0.81891487       0.93037250       0.51648043 </v>
   <v>       0.19391487       0.31962750       0.26648043 </v>
   <v>       0.44391487       0.31962750       0.26648043 </v>
   <v>       0.69391487       0.31962750       0.26648043 </v>
   <v>       0.94391487       0.31962750       0.26648043 </v>
   <v>       0.19391487       0.81962750       0.26648043 </v>
   <v>       0.44391487       0.81962750       0.26648043 </v>
   <v>       0.69391487       0.81962750       0.26648043 </v>
   <v>       0.94391487       0.81962750       0.26648043 </v>
   <v>       0.19391487       0.31962750       0.76648043 </v>
   <v>       0.44391487       0.31962750       0.76648043 </v>
   <v>       0.69391487       0.31962750       0.76648043 </v>
   <v>       0.94391487       0.31962750       0.76648043 </v>
   <v>       0.19391487       0.81962750       0.76648043 </v>
   <v>       0.44391487       0.81962750       0.76648043 </v>
   <v>       0.69391487       0.81962750       0.76648043 </v>
   <v>       0.94391487       0.81962750       0.76648043 </v>
   <v>       0.18108512       0.06962750       0.48351950 </v>
   <v>       0.43108512       0.06962750       0.48351950 </v>
   <v>       0.68108512       0.06962750       0.48351950 </v>
   <v>       0.93108512       0.06962750       0.48351950 </v>
   <v>       0.18108512       0.56962750       0.48351950 </v>
   <v>       0.43108512       0.56962750       0.48351950 </v>
   <v>       0.68108512       0.56962750       0.48351950 </v>
   <v>       0.93108512       0.56962750       0.48351950 </v>
   <v>       0.18108512       0.06962750       0.98351950 </v>
   <v>       0.43108512       0.06962750       0.98351950 </v>
   <v>       0.68108512       0.06962750       0.98351950 </v>
   <v>       0.93108512       0.06962750       0.98351950 </v>
   <v>       0.18108512       0.56962750       0.98351950 </v>
   <v>       0.43108512       0.56962750       0.98351950 </v>
   <v>       0.68108512       0.56962750       0.98351950 </v>
   <v>       0.93108512       0.56962750       0.98351950 </v>
  </varray>
 </structure>
</modeling>
