 192 192   0   0
  0.1931523E+02  0.1767436E-08  0.1377516E-08  0.1580299E-08  0.5000000E-15
  1.000000000000000E-004
  CAR 
 unknown system                          
     13.15597333     -8.37059179  301      6.46150129      1.00000000
     -8.371  0.0000E+00  0.0000E+00
     -8.299  0.0000E+00  0.0000E+00
     -8.227  0.0000E+00  0.0000E+00
     -8.155  0.0000E+00  0.0000E+00
     -8.084  0.0000E+00  0.0000E+00
     -8.012  0.0000E+00  0.0000E+00
     -7.940  0.0000E+00  0.0000E+00
     -7.868  0.0000E+00  0.0000E+00
     -7.797  0.0000E+00  0.0000E+00
     -7.725  0.0000E+00  0.0000E+00
     -7.653  0.2754E-12  0.1976E-13
     -7.581  0.1527E-06  0.1096E-07
     -7.510  0.1568E-02  0.1125E-03
     -7.438  0.3670E+00  0.2645E-01
     -7.366  0.5491E+01  0.4205E+00
     -7.294  0.2299E+02  0.2070E+01
     -7.223  0.4301E+02  0.5156E+01
     -7.151  0.5040E+02  0.8773E+01
     -7.079  0.7151E+02  0.1390E+02
     -7.007  0.1042E+03  0.2138E+02
     -6.935  0.1347E+03  0.3104E+02
     -6.864  0.2017E+03  0.4552E+02
     -6.792  0.2948E+03  0.6667E+02
     -6.720  0.3592E+03  0.9245E+02
     -6.648  0.2859E+03  0.1130E+03
     -6.577  0.1778E+03  0.1257E+03
     -6.505  0.3120E+02  0.1280E+03
     -6.433  0.4977E+00  0.1280E+03
     -6.361  0.3037E-03  0.1280E+03
     -6.290  0.4320E-08  0.1280E+03
     -6.218  0.3868E-15  0.1280E+03
     -6.146  0.0000E+00  0.1280E+03
     -6.074  0.0000E+00  0.1280E+03
     -6.003  0.0000E+00  0.1280E+03
     -5.931  0.0000E+00  0.1280E+03
     -5.859  0.0000E+00  0.1280E+03
     -5.787  0.0000E+00  0.1280E+03
     -5.716  0.0000E+00  0.1280E+03
     -5.644  0.0000E+00  0.1280E+03
     -5.572  0.0000E+00  0.1280E+03
     -5.500  0.0000E+00  0.1280E+03
     -5.429  0.0000E+00  0.1280E+03
     -5.357  0.0000E+00  0.1280E+03
     -5.285  0.0000E+00  0.1280E+03
     -5.213  0.0000E+00  0.1280E+03
     -5.142  0.0000E+00  0.1280E+03
     -5.070  0.0000E+00  0.1280E+03
     -4.998  0.0000E+00  0.1280E+03
     -4.926  0.0000E+00  0.1280E+03
     -4.855  0.0000E+00  0.1280E+03
     -4.783  0.0000E+00  0.1280E+03
     -4.711  0.0000E+00  0.1280E+03
     -4.639  0.0000E+00  0.1280E+03
     -4.568  0.0000E+00  0.1280E+03
     -4.496  0.0000E+00  0.1280E+03
     -4.424  0.0000E+00  0.1280E+03
     -4.352  0.0000E+00  0.1280E+03
     -4.281  0.0000E+00  0.1280E+03
     -4.209  0.0000E+00  0.1280E+03
     -4.137  0.0000E+00  0.1280E+03
     -4.065  0.0000E+00  0.1280E+03
     -3.994  0.0000E+00  0.1280E+03
     -3.922  0.0000E+00  0.1280E+03
     -3.850  0.0000E+00  0.1280E+03
     -3.778  0.0000E+00  0.1280E+03
     -3.707  0.0000E+00  0.1280E+03
     -3.635  0.0000E+00  0.1280E+03
     -3.563  0.0000E+00  0.1280E+03
     -3.491  0.0000E+00  0.1280E+03
     -3.419  0.0000E+00  0.1280E+03
     -3.348  0.0000E+00  0.1280E+03
     -3.276  0.0000E+00  0.1280E+03
     -3.204  0.0000E+00  0.1280E+03
     -3.132  0.0000E+00  0.1280E+03
     -3.061  0.0000E+00  0.1280E+03
     -2.989  0.0000E+00  0.1280E+03
     -2.917  0.0000E+00  0.1280E+03
     -2.845  0.0000E+00  0.1280E+03
     -2.774  0.0000E+00  0.1280E+03
     -2.702  0.0000E+00  0.1280E+03
     -2.630  0.0000E+00  0.1280E+03
     -2.558  0.0000E+00  0.1280E+03
     -2.487  0.0000E+00  0.1280E+03
     -2.415  0.0000E+00  0.1280E+03
     -2.343  0.0000E+00  0.1280E+03
     -2.271  0.0000E+00  0.1280E+03
     -2.200  0.0000E+00  0.1280E+03
     -2.128  0.0000E+00  0.1280E+03
     -2.056  0.0000E+00  0.1280E+03
     -1.984  0.0000E+00  0.1280E+03
     -1.913  0.0000E+00  0.1280E+03
     -1.841  0.0000E+00  0.1280E+03
     -1.769  0.0000E+00  0.1280E+03
     -1.697  0.0000E+00  0.1280E+03
     -1.626  0.0000E+00  0.1280E+03
     -1.554  0.0000E+00  0.1280E+03
     -1.482  0.0000E+00  0.1280E+03
     -1.410  0.0000E+00  0.1280E+03
     -1.339  0.0000E+00  0.1280E+03
     -1.267  0.0000E+00  0.1280E+03
     -1.195  0.0000E+00  0.1280E+03
     -1.123  0.0000E+00  0.1280E+03
     -1.052  0.0000E+00  0.1280E+03
     -0.980  0.0000E+00  0.1280E+03
     -0.908  0.0000E+00  0.1280E+03
     -0.836  0.0000E+00  0.1280E+03
     -0.765  0.0000E+00  0.1280E+03
     -0.693  0.0000E+00  0.1280E+03
     -0.621  0.0000E+00  0.1280E+03
     -0.549  0.0000E+00  0.1280E+03
     -0.478  0.6808E-13  0.1280E+03
     -0.406  0.6492E-07  0.1280E+03
     -0.334  0.1133E-02  0.1280E+03
     -0.262  0.4173E+00  0.1280E+03
     -0.190  0.5688E+01  0.1284E+03
     -0.119  0.1394E+02  0.1294E+03
     -0.047  0.4589E+02  0.1327E+03
      0.025  0.5369E+02  0.1366E+03
      0.097  0.6858E+02  0.1415E+03
      0.168  0.2139E+03  0.1569E+03
      0.240  0.2743E+03  0.1765E+03
      0.312  0.2131E+03  0.1918E+03
      0.384  0.2368E+03  0.2088E+03
      0.455  0.2914E+03  0.2297E+03
      0.527  0.2146E+03  0.2451E+03
      0.599  0.1975E+03  0.2593E+03
      0.671  0.2092E+03  0.2743E+03
      0.742  0.2225E+03  0.2903E+03
      0.814  0.2919E+03  0.3112E+03
      0.886  0.2952E+03  0.3324E+03
      0.958  0.2620E+03  0.3512E+03
      1.029  0.3184E+03  0.3741E+03
      1.101  0.3131E+03  0.3965E+03
      1.173  0.2850E+03  0.4170E+03
      1.245  0.2380E+03  0.4340E+03
      1.316  0.2501E+03  0.4520E+03
      1.388  0.3275E+03  0.4755E+03
      1.460  0.4216E+03  0.5057E+03
      1.532  0.4094E+03  0.5351E+03
      1.603  0.4444E+03  0.5670E+03
      1.675  0.5174E+03  0.6041E+03
      1.747  0.5253E+03  0.6418E+03
      1.819  0.5133E+03  0.6787E+03
      1.890  0.3908E+03  0.7067E+03
      1.962  0.4481E+03  0.7389E+03
      2.034  0.4440E+03  0.7707E+03
      2.106  0.4746E+03  0.8048E+03
      2.177  0.5334E+03  0.8430E+03
      2.249  0.5773E+03  0.8845E+03
      2.321  0.6066E+03  0.9280E+03
      2.393  0.6704E+03  0.9761E+03
      2.464  0.6134E+03  0.1020E+04
      2.536  0.5514E+03  0.1060E+04
      2.608  0.5593E+03  0.1100E+04
      2.680  0.5720E+03  0.1141E+04
      2.751  0.6385E+03  0.1187E+04
      2.823  0.6962E+03  0.1237E+04
      2.895  0.5605E+03  0.1277E+04
      2.967  0.4697E+03  0.1311E+04
      3.038  0.4625E+03  0.1344E+04
      3.110  0.4531E+03  0.1376E+04
      3.182  0.4275E+03  0.1407E+04
      3.254  0.3603E+03  0.1433E+04
      3.326  0.2294E+03  0.1449E+04
      3.397  0.1856E+03  0.1463E+04
      3.469  0.1859E+03  0.1476E+04
      3.541  0.1904E+03  0.1490E+04
      3.613  0.2049E+03  0.1504E+04
      3.684  0.1799E+03  0.1517E+04
      3.756  0.1214E+03  0.1526E+04
      3.828  0.9445E+02  0.1533E+04
      3.900  0.1009E+03  0.1540E+04
      3.971  0.1209E+03  0.1549E+04
      4.043  0.9778E+02  0.1556E+04
      4.115  0.1020E+03  0.1563E+04
      4.187  0.1566E+03  0.1574E+04
      4.258  0.9670E+02  0.1581E+04
      4.330  0.8742E+02  0.1587E+04
      4.402  0.9349E+02  0.1594E+04
      4.474  0.9218E+02  0.1601E+04
      4.545  0.1497E+03  0.1611E+04
      4.617  0.1157E+03  0.1620E+04
      4.689  0.9290E+02  0.1626E+04
      4.761  0.1128E+03  0.1635E+04
      4.832  0.8533E+02  0.1641E+04
      4.904  0.1027E+03  0.1648E+04
      4.976  0.1703E+03  0.1660E+04
      5.048  0.1292E+03  0.1669E+04
      5.119  0.6918E+02  0.1674E+04
      5.191  0.9380E+02  0.1681E+04
      5.263  0.7411E+02  0.1687E+04
      5.335  0.1242E+03  0.1695E+04
      5.406  0.1440E+03  0.1706E+04
      5.478  0.1184E+03  0.1714E+04
      5.550  0.7220E+02  0.1719E+04
      5.622  0.9416E+02  0.1726E+04
      5.693  0.1418E+03  0.1736E+04
      5.765  0.1555E+03  0.1748E+04
      5.837  0.1063E+03  0.1755E+04
      5.909  0.1207E+03  0.1764E+04
      5.980  0.1162E+03  0.1772E+04
      6.052  0.8568E+02  0.1778E+04
      6.124  0.6182E+02  0.1783E+04
      6.196  0.4235E+02  0.1786E+04
      6.267  0.3714E+02  0.1788E+04
      6.339  0.3034E+02  0.1791E+04
      6.411  0.1348E+02  0.1792E+04
      6.483  0.7428E+01  0.1792E+04
      6.554  0.2394E+01  0.1792E+04
      6.626  0.4555E+01  0.1793E+04
      6.698  0.2802E+01  0.1793E+04
      6.770  0.2357E+01  0.1793E+04
      6.842  0.1715E+01  0.1793E+04
      6.913  0.1146E+02  0.1794E+04
      6.985  0.1504E+02  0.1795E+04
      7.057  0.1030E+02  0.1796E+04
      7.129  0.1068E+02  0.1797E+04
      7.200  0.2570E+02  0.1798E+04
      7.272  0.3095E+02  0.1801E+04
      7.344  0.1854E+02  0.1802E+04
      7.416  0.3211E+02  0.1804E+04
      7.487  0.3522E+02  0.1807E+04
      7.559  0.3735E+02  0.1809E+04
      7.631  0.5773E+02  0.1814E+04
      7.703  0.6723E+02  0.1818E+04
      7.774  0.7295E+02  0.1824E+04
      7.846  0.7317E+02  0.1829E+04
      7.918  0.6230E+02  0.1833E+04
      7.990  0.5797E+02  0.1837E+04
      8.061  0.7801E+02  0.1843E+04
      8.133  0.8139E+02  0.1849E+04
      8.205  0.8324E+02  0.1855E+04
      8.277  0.7302E+02  0.1860E+04
      8.348  0.6663E+02  0.1865E+04
      8.420  0.7409E+02  0.1870E+04
      8.492  0.8914E+02  0.1877E+04
      8.564  0.7475E+02  0.1882E+04
      8.635  0.5770E+02  0.1886E+04
      8.707  0.8132E+02  0.1892E+04
      8.779  0.8427E+02  0.1898E+04
      8.851  0.5715E+02  0.1902E+04
      8.922  0.4624E+02  0.1905E+04
      8.994  0.4010E+02  0.1908E+04
      9.066  0.5340E+02  0.1912E+04
      9.138  0.8588E+02  0.1918E+04
      9.209  0.6360E+02  0.1923E+04
      9.281  0.4917E+02  0.1926E+04
      9.353  0.5734E+02  0.1931E+04
      9.425  0.6764E+02  0.1935E+04
      9.496  0.6301E+02  0.1940E+04
      9.568  0.4077E+02  0.1943E+04
      9.640  0.7166E+02  0.1948E+04
      9.712  0.1046E+03  0.1955E+04
      9.783  0.1069E+03  0.1963E+04
      9.855  0.8784E+02  0.1969E+04
      9.927  0.7645E+02  0.1975E+04
      9.999  0.5739E+02  0.1979E+04
     10.070  0.8482E+02  0.1985E+04
     10.142  0.8791E+02  0.1991E+04
     10.214  0.1006E+03  0.1999E+04
     10.286  0.1088E+03  0.2006E+04
     10.358  0.1133E+03  0.2015E+04
     10.429  0.1100E+03  0.2022E+04
     10.501  0.9299E+02  0.2029E+04
     10.573  0.7327E+02  0.2034E+04
     10.645  0.7614E+02  0.2040E+04
     10.716  0.6916E+02  0.2045E+04
     10.788  0.6820E+02  0.2050E+04
     10.860  0.7246E+02  0.2055E+04
     10.932  0.7165E+02  0.2060E+04
     11.003  0.5566E+02  0.2064E+04
     11.075  0.9413E+02  0.2071E+04
     11.147  0.1043E+03  0.2078E+04
     11.219  0.8082E+02  0.2084E+04
     11.290  0.9476E+02  0.2091E+04
     11.362  0.8168E+02  0.2097E+04
     11.434  0.1074E+03  0.2104E+04
     11.506  0.1296E+03  0.2114E+04
     11.577  0.1184E+03  0.2122E+04
     11.649  0.1047E+03  0.2130E+04
     11.721  0.6252E+02  0.2134E+04
     11.793  0.9061E+02  0.2141E+04
     11.864  0.4931E+02  0.2144E+04
     11.936  0.2693E+02  0.2146E+04
     12.008  0.1368E+02  0.2147E+04
     12.080  0.1937E+02  0.2149E+04
     12.151  0.1310E+02  0.2150E+04
     12.223  0.5751E+01  0.2150E+04
     12.295  0.4758E+00  0.2150E+04
     12.367  0.1721E-02  0.2150E+04
     12.438  0.1567E-06  0.2150E+04
     12.510  0.2770E-12  0.2150E+04
     12.582  0.0000E+00  0.2150E+04
     12.654  0.0000E+00  0.2150E+04
     12.725  0.0000E+00  0.2150E+04
     12.797  0.0000E+00  0.2150E+04
     12.869  0.0000E+00  0.2150E+04
     12.941  0.0000E+00  0.2150E+04
     13.012  0.0000E+00  0.2150E+04
     13.084  0.0000E+00  0.2150E+04
     13.156  0.0000E+00  0.2150E+04
