<?xml version="1.0" encoding="ISO-8859-1"?>
<modeling>
 <generator>
  <i name="program" type="string">vasp </i>
  <i name="version" type="string">5.4.4.18Apr17-6-g9f103f2a35  </i>
  <i name="subversion" type="string">(build Jul 30 2020 14:31:59) complex            parallel </i>
  <i name="platform" type="string">LinuxIFC </i>
  <i name="date" type="string">2020 11 04 </i>
  <i name="time" type="string">04:49:11 </i>
 </generator>
 <incar>
  <i type="string" name="PREC">accurate</i>
  <i type="string" name="ALGO"> normal</i>
  <i type="logical" name="ADDGRID"> T  </i>
  <i type="int" name="ISPIN">     1</i>
  <i type="int" name="ICHARG">     1</i>
  <i type="int" name="NELM">   200</i>
  <i type="int" name="NELMIN">     8</i>
  <i name="EDIFF">      0.00000001</i>
  <i type="int" name="ISIF">     3</i>
  <i name="ENCUT">    650.00000000</i>
  <i type="logical" name="LREAL"> F  </i>
  <i type="int" name="ISMEAR">     0</i>
  <i name="SIGMA">      0.05000000</i>
  <i type="logical" name="LWAVE"> F  </i>
  <i type="logical" name="LASPH"> T  </i>
  <v type="int" name="KPOINT_BSE">    -1     0     0     0</v>
  <i type="int" name="NELM">   200</i>
  <i type="string" name="GGA"> ps</i>
  <i type="logical" name="LASPH"> T  </i>
 </incar>
 <structure name="primitive_cell" >
  <crystal>
   <varray name="basis" >
    <v>      17.67434300       0.00000000       0.02590756 </v>
    <v>       0.00000000      13.77516210       0.00000000 </v>
    <v>      -4.23144168       0.00000000      15.22594286 </v>
   </varray>
   <i name="volume">   3708.52383470 </i>
   <varray name="rec_basis" >
    <v>       0.05655615       0.00000000       0.01571752 </v>
    <v>       0.00000000       0.07259443       0.00000000 </v>
    <v>      -0.00009623       0.00000000       0.06565063 </v>
   </varray>
  </crystal>
  <varray name="positions" >
   <v>       0.08031353       0.12413882       0.07841825 </v>
   <v>       0.18318778       0.26122260       0.07996576 </v>
   <v>       0.19181221       0.01122260       0.17066697 </v>
   <v>       0.05608512       0.18037250       0.23351951 </v>
   <v>       0.18108512       0.06962750      -0.01648049 </v>
   <v>      -0.06891488       0.06962750      -0.01648049 </v>
   <v>       0.06891487      -0.06962750       0.01648043 </v>
   <v>       0.06681221       0.23877740      -0.07996582 </v>
   <v>      -0.06681222       0.26122260       0.07996576 </v>
   <v>      -0.05818779       0.01122260       0.17003418 </v>
   <v>       0.04468646       0.37413882       0.17158168 </v>
   <v>       0.04468646      -0.12586118       0.17158168 </v>
   <v>       0.20531353       0.12586118       0.32841825 </v>
   <v>      -0.04468647       0.12586118      -0.17158175 </v>
   <v>       0.19391487       0.31962750       0.26648043 </v>
   <v>       0.30608512       0.18037250       0.23351951 </v>
   <v>       0.05818778      -0.01122260      -0.17003424 </v>
   <v>       0.06891487       0.43037250       0.01648043 </v>
   <v>       0.33031353       0.12413882       0.07841825 </v>
   <v>      -0.16968647       0.12413882       0.07841825 </v>
   <v>       0.05818778      -0.01122260       0.32996576 </v>
   <v>      -0.08031354      -0.12413882      -0.07841832 </v>
   <v>       0.16968646      -0.12413882      -0.07841832 </v>
   <v>      -0.08031354       0.37586118      -0.07841832 </v>
   <v>       0.16968646       0.37586118      -0.07841832 </v>
   <v>      -0.18318779       0.23877740      -0.07996582 </v>
   <v>      -0.04468647       0.12586118       0.32841825 </v>
   <v>       0.20531353       0.12586118      -0.17158175 </v>
   <v>       0.29468646       0.37413882       0.17158168 </v>
   <v>       0.29468646      -0.12586118       0.17158168 </v>
   <v>      -0.05608513       0.31962750       0.26648043 </v>
   <v>       0.30818778      -0.01122260       0.32996576 </v>
   <v>      -0.18108513      -0.06962750       0.01648043 </v>
   <v>       0.19391487      -0.18037250       0.26648043 </v>
   <v>       0.31891487      -0.06962750       0.01648043 </v>
   <v>       0.18318778      -0.23877740       0.07996576 </v>
   <v>       0.05608512       0.18037250      -0.26648049 </v>
   <v>      -0.05608513       0.31962750      -0.23351957 </v>
   <v>      -0.06681222      -0.23877740       0.07996576 </v>
   <v>       0.31681221       0.23877740      -0.07996582 </v>
   <v>      -0.19181222      -0.01122260      -0.17003424 </v>
   <v>       0.06681221       0.23877740       0.42003418 </v>
   <v>       0.19181221      -0.48877740       0.17003418 </v>
   <v>       0.06681221      -0.26122260      -0.07996582 </v>
   <v>      -0.05608513      -0.18037250       0.26648043 </v>
   <v>      -0.19391488       0.18037250       0.23351951 </v>
   <v>       0.31681221       0.23877740       0.42003418 </v>
   <v>      -0.18108513       0.43037250       0.01648043 </v>
   <v>      -0.05818779      -0.48877740       0.17003418 </v>
   <v>       0.18108512       0.06962750       0.48351951 </v>
   <v>       0.31891487       0.43037250       0.01648043 </v>
   <v>       0.16968646      -0.12413882       0.42158168 </v>
   <v>       0.16968646       0.37586118       0.42158168 </v>
   <v>      -0.19391488       0.18037250      -0.26648049 </v>
   <v>       0.05818778       0.48877740      -0.17003424 </v>
   <v>       0.44181221       0.01122260       0.17003418 </v>
   <v>       0.19391487       0.31962750      -0.23351957 </v>
   <v>      -0.05608513      -0.18037250      -0.23351957 </v>
   <v>      -0.05818779       0.01122260      -0.32996582 </v>
   <v>       0.05818778       0.48877740       0.32996576 </v>
   <v>       0.43318778       0.26122260       0.07996576 </v>
   <v>      -0.20531354       0.37413882       0.17158168 </v>
   <v>      -0.20531354      -0.12586118       0.17158168 </v>
   <v>       0.30818778      -0.01122260      -0.17003424 </v>
   <v>       0.05608512      -0.31962750       0.23351951 </v>
   <v>       0.18108512      -0.43037250      -0.01648049 </v>
   <v>      -0.06891488      -0.43037250      -0.01648049 </v>
   <v>       0.45531353       0.12586118       0.32841825 </v>
   <v>      -0.29468647       0.12586118      -0.17158175 </v>
   <v>       0.43108512       0.06962750      -0.01648049 </v>
   <v>      -0.31891488       0.06962750      -0.01648049 </v>
   <v>       0.44391487       0.31962750       0.26648043 </v>
   <v>       0.08031353      -0.37586118       0.07841825 </v>
   <v>       0.30818778       0.48877740       0.32996576 </v>
   <v>      -0.18318779      -0.26122260      -0.07996582 </v>
   <v>       0.19391487      -0.18037250      -0.23351957 </v>
   <v>       0.04468646       0.37413882      -0.32841832 </v>
   <v>       0.04468646      -0.12586118      -0.32841832 </v>
   <v>      -0.19181222      -0.01122260       0.32996576 </v>
   <v>      -0.31681222       0.26122260       0.07996576 </v>
   <v>      -0.19181222       0.48877740      -0.17003424 </v>
   <v>       0.30608512      -0.31962750       0.23351951 </v>
   <v>       0.19181221       0.01122260      -0.32996582 </v>
   <v>       0.06891487      -0.06962750      -0.48351957 </v>
   <v>      -0.30818779       0.01122260       0.17003418 </v>
   <v>       0.31891487      -0.06962750      -0.48351957 </v>
   <v>      -0.08031354      -0.12413882       0.42158168 </v>
   <v>       0.31681221      -0.26122260      -0.07996582 </v>
   <v>      -0.06891488       0.06962750       0.48351951 </v>
   <v>       0.44391487      -0.18037250       0.26648043 </v>
   <v>      -0.08031354       0.37586118       0.42158168 </v>
   <v>       0.30608512       0.18037250      -0.26648049 </v>
   <v>       0.06681221      -0.26122260       0.42003418 </v>
   <v>       0.43108512       0.06962750       0.48351951 </v>
   <v>       0.41968646      -0.12413882       0.42158168 </v>
   <v>       0.41968646       0.37586118       0.42158168 </v>
   <v>      -0.30608513       0.31962750      -0.23351957 </v>
   <v>      -0.33031354      -0.12413882      -0.07841832 </v>
   <v>      -0.33031354       0.37586118      -0.07841832 </v>
   <v>      -0.20531354       0.37413882      -0.32841832 </v>
   <v>      -0.20531354      -0.12586118      -0.32841832 </v>
   <v>      -0.06681222       0.26122260      -0.42003424 </v>
   <v>       0.41968646      -0.12413882      -0.07841832 </v>
   <v>       0.18318778       0.26122260      -0.42003424 </v>
   <v>       0.41968646       0.37586118      -0.07841832 </v>
   <v>       0.08031353       0.12413882      -0.42158175 </v>
   <v>       0.31681221      -0.26122260       0.42003418 </v>
   <v>       0.20531353      -0.37413882       0.32841825 </v>
   <v>      -0.04468647      -0.37413882      -0.17158175 </v>
   <v>       0.33031353       0.12413882      -0.42158175 </v>
   <v>      -0.16968647       0.12413882      -0.42158175 </v>
   <v>       0.43318778      -0.23877740       0.07996576 </v>
   <v>       0.30818778       0.48877740      -0.17003424 </v>
   <v>       0.05608512      -0.31962750      -0.26648049 </v>
   <v>      -0.44391488       0.18037250       0.23351951 </v>
   <v>       0.44181221      -0.48877740       0.17003418 </v>
   <v>       0.06891487       0.43037250      -0.48351957 </v>
   <v>      -0.18318779       0.23877740       0.42003418 </v>
   <v>       0.33031353      -0.37586118       0.07841825 </v>
   <v>      -0.16968647      -0.37586118       0.07841825 </v>
   <v>      -0.30818779       0.01122260      -0.32996582 </v>
   <v>      -0.05818779      -0.48877740      -0.32996582 </v>
   <v>       0.31891487       0.43037250      -0.48351957 </v>
   <v>      -0.30608513      -0.18037250      -0.23351957 </v>
   <v>      -0.04468647      -0.37413882       0.32841825 </v>
   <v>       0.20531353      -0.37413882      -0.17158175 </v>
   <v>      -0.44181222      -0.01122260       0.32996576 </v>
   <v>      -0.19391488      -0.31962750       0.23351951 </v>
   <v>      -0.29468647       0.12586118       0.32841825 </v>
   <v>       0.45531353       0.12586118      -0.17158175 </v>
   <v>      -0.30608513       0.31962750       0.26648043 </v>
   <v>      -0.19181222       0.48877740       0.32996576 </v>
   <v>      -0.31681222      -0.23877740       0.07996576 </v>
   <v>      -0.45531354       0.37413882       0.17158168 </v>
   <v>      -0.45531354      -0.12586118       0.17158168 </v>
   <v>       0.18108512      -0.43037250       0.48351951 </v>
   <v>      -0.19391488      -0.31962750      -0.26648049 </v>
   <v>      -0.41968647       0.12413882       0.07841825 </v>
   <v>       0.43318778       0.26122260      -0.42003424 </v>
   <v>      -0.43318779       0.23877740      -0.07996582 </v>
   <v>       0.29468646       0.37413882      -0.32841832 </v>
   <v>       0.29468646      -0.12586118      -0.32841832 </v>
   <v>       0.19181221      -0.48877740      -0.32996582 </v>
   <v>      -0.43318779       0.23877740       0.42003418 </v>
   <v>      -0.06681222      -0.23877740      -0.42003424 </v>
   <v>      -0.30818779      -0.48877740       0.17003418 </v>
   <v>       0.43108512      -0.43037250      -0.01648049 </v>
   <v>       0.18318778      -0.23877740      -0.42003424 </v>
   <v>      -0.30608513      -0.18037250       0.26648043 </v>
   <v>      -0.31891488      -0.43037250      -0.01648049 </v>
   <v>      -0.44181222      -0.01122260      -0.17003424 </v>
   <v>      -0.43108513      -0.06962750       0.01648043 </v>
   <v>      -0.31681222       0.26122260      -0.42003424 </v>
   <v>      -0.18108513      -0.06962750      -0.48351957 </v>
   <v>      -0.44391488       0.18037250      -0.26648049 </v>
   <v>       0.44391487       0.31962750      -0.23351957 </v>
   <v>      -0.18318779      -0.26122260       0.42003418 </v>
   <v>       0.45531353      -0.37413882       0.32841825 </v>
   <v>      -0.29468647      -0.37413882      -0.17158175 </v>
   <v>      -0.30818779      -0.48877740      -0.32996582 </v>
   <v>      -0.44181222       0.48877740       0.32996576 </v>
   <v>       0.30608512      -0.31962750      -0.26648049 </v>
   <v>      -0.06891488      -0.43037250       0.48351951 </v>
   <v>      -0.43108513       0.43037250       0.01648043 </v>
   <v>       0.43108512      -0.43037250       0.48351951 </v>
   <v>      -0.18108513       0.43037250      -0.48351957 </v>
   <v>      -0.43108513      -0.06962750      -0.48351957 </v>
   <v>       0.44181221       0.01122260      -0.32996582 </v>
   <v>       0.44391487      -0.18037250      -0.23351957 </v>
   <v>       0.43318778      -0.23877740      -0.42003424 </v>
   <v>      -0.44391488      -0.31962750       0.23351951 </v>
   <v>      -0.41968647       0.12413882      -0.42158175 </v>
   <v>      -0.31891488       0.06962750       0.48351951 </v>
   <v>      -0.43318779      -0.26122260      -0.07996582 </v>
   <v>      -0.44181222       0.48877740      -0.17003424 </v>
   <v>      -0.43318779      -0.26122260       0.42003418 </v>
   <v>      -0.31681222      -0.23877740      -0.42003424 </v>
   <v>      -0.43108513       0.43037250      -0.48351957 </v>
   <v>       0.08031353      -0.37586118      -0.42158175 </v>
   <v>      -0.45531354       0.37413882      -0.32841832 </v>
   <v>      -0.45531354      -0.12586118      -0.32841832 </v>
   <v>       0.33031353      -0.37586118      -0.42158175 </v>
   <v>      -0.16968647      -0.37586118      -0.42158175 </v>
   <v>      -0.33031354      -0.12413882       0.42158168 </v>
   <v>      -0.33031354       0.37586118       0.42158168 </v>
   <v>      -0.29468647      -0.37413882       0.32841825 </v>
   <v>       0.45531353      -0.37413882      -0.17158175 </v>
   <v>       0.44181221      -0.48877740      -0.32996582 </v>
   <v>      -0.41968647      -0.37586118       0.07841825 </v>
   <v>      -0.44391488      -0.31962750      -0.26648049 </v>
   <v>      -0.31891488      -0.43037250       0.48351951 </v>
   <v>      -0.41968647      -0.37586118      -0.42158175 </v>
  </varray>
 </structure>
 <varray name="primitive_index" >
  <v type="int" >        1 </v>
  <v type="int" >       81 </v>
  <v type="int" >       65 </v>
  <v type="int" >      129 </v>
  <v type="int" >      185 </v>
  <v type="int" >      188 </v>
  <v type="int" >      149 </v>
  <v type="int" >      121 </v>
  <v type="int" >       84 </v>
  <v type="int" >       68 </v>
  <v type="int" >       17 </v>
  <v type="int" >       21 </v>
  <v type="int" >       49 </v>
  <v type="int" >       60 </v>
  <v type="int" >      161 </v>
  <v type="int" >      130 </v>
  <v type="int" >      109 </v>
  <v type="int" >      145 </v>
  <v type="int" >        2 </v>
  <v type="int" >        4 </v>
  <v type="int" >      101 </v>
  <v type="int" >       48 </v>
  <v type="int" >       45 </v>
  <v type="int" >       44 </v>
  <v type="int" >       41 </v>
  <v type="int" >      124 </v>
  <v type="int" >       52 </v>
  <v type="int" >       57 </v>
  <v type="int" >       18 </v>
  <v type="int" >       22 </v>
  <v type="int" >      164 </v>
  <v type="int" >      102 </v>
  <v type="int" >      152 </v>
  <v type="int" >      165 </v>
  <v type="int" >      150 </v>
  <v type="int" >       85 </v>
  <v type="int" >      137 </v>
  <v type="int" >      172 </v>
  <v type="int" >       88 </v>
  <v type="int" >      122 </v>
  <v type="int" >      112 </v>
  <v type="int" >      113 </v>
  <v type="int" >       69 </v>
  <v type="int" >      125 </v>
  <v type="int" >      168 </v>
  <v type="int" >      132 </v>
  <v type="int" >      114 </v>
  <v type="int" >      148 </v>
  <v type="int" >       72 </v>
  <v type="int" >      177 </v>
  <v type="int" >      146 </v>
  <v type="int" >       37 </v>
  <v type="int" >       33 </v>
  <v type="int" >      140 </v>
  <v type="int" >      105 </v>
  <v type="int" >       66 </v>
  <v type="int" >      169 </v>
  <v type="int" >      176 </v>
  <v type="int" >       76 </v>
  <v type="int" >       97 </v>
  <v type="int" >       82 </v>
  <v type="int" >       20 </v>
  <v type="int" >       24 </v>
  <v type="int" >      110 </v>
  <v type="int" >      133 </v>
  <v type="int" >      189 </v>
  <v type="int" >      192 </v>
  <v type="int" >       50 </v>
  <v type="int" >       59 </v>
  <v type="int" >      186 </v>
  <v type="int" >      187 </v>
  <v type="int" >      162 </v>
  <v type="int" >        5 </v>
  <v type="int" >       98 </v>
  <v type="int" >      128 </v>
  <v type="int" >      173 </v>
  <v type="int" >       25 </v>
  <v type="int" >       29 </v>
  <v type="int" >      104 </v>
  <v type="int" >       83 </v>
  <v type="int" >      108 </v>
  <v type="int" >      134 </v>
  <v type="int" >       73 </v>
  <v type="int" >      157 </v>
  <v type="int" >       67 </v>
  <v type="int" >      158 </v>
  <v type="int" >       40 </v>
  <v type="int" >      126 </v>
  <v type="int" >      180 </v>
  <v type="int" >      166 </v>
  <v type="int" >       36 </v>
  <v type="int" >      138 </v>
  <v type="int" >      117 </v>
  <v type="int" >      178 </v>
  <v type="int" >       38 </v>
  <v type="int" >       34 </v>
  <v type="int" >      171 </v>
  <v type="int" >       47 </v>
  <v type="int" >       43 </v>
  <v type="int" >       28 </v>
  <v type="int" >       32 </v>
  <v type="int" >       92 </v>
  <v type="int" >       46 </v>
  <v type="int" >       89 </v>
  <v type="int" >       42 </v>
  <v type="int" >        9 </v>
  <v type="int" >      118 </v>
  <v type="int" >       53 </v>
  <v type="int" >       64 </v>
  <v type="int" >       10 </v>
  <v type="int" >       12 </v>
  <v type="int" >       86 </v>
  <v type="int" >      106 </v>
  <v type="int" >      141 </v>
  <v type="int" >      131 </v>
  <v type="int" >       70 </v>
  <v type="int" >      153 </v>
  <v type="int" >      116 </v>
  <v type="int" >        6 </v>
  <v type="int" >        8 </v>
  <v type="int" >       75 </v>
  <v type="int" >       80 </v>
  <v type="int" >      154 </v>
  <v type="int" >      175 </v>
  <v type="int" >       56 </v>
  <v type="int" >       61 </v>
  <v type="int" >      103 </v>
  <v type="int" >      136 </v>
  <v type="int" >       51 </v>
  <v type="int" >       58 </v>
  <v type="int" >      163 </v>
  <v type="int" >      100 </v>
  <v type="int" >       87 </v>
  <v type="int" >       19 </v>
  <v type="int" >       23 </v>
  <v type="int" >      181 </v>
  <v type="int" >      144 </v>
  <v type="int" >        3 </v>
  <v type="int" >       90 </v>
  <v type="int" >      123 </v>
  <v type="int" >       26 </v>
  <v type="int" >       30 </v>
  <v type="int" >       77 </v>
  <v type="int" >      115 </v>
  <v type="int" >       96 </v>
  <v type="int" >       71 </v>
  <v type="int" >      190 </v>
  <v type="int" >       93 </v>
  <v type="int" >      167 </v>
  <v type="int" >      191 </v>
  <v type="int" >      111 </v>
  <v type="int" >      151 </v>
  <v type="int" >       91 </v>
  <v type="int" >      160 </v>
  <v type="int" >      139 </v>
  <v type="int" >      170 </v>
  <v type="int" >      120 </v>
  <v type="int" >       54 </v>
  <v type="int" >       63 </v>
  <v type="int" >       79 </v>
  <v type="int" >       99 </v>
  <v type="int" >      142 </v>
  <v type="int" >      184 </v>
  <v type="int" >      147 </v>
  <v type="int" >      182 </v>
  <v type="int" >      156 </v>
  <v type="int" >      159 </v>
  <v type="int" >       74 </v>
  <v type="int" >      174 </v>
  <v type="int" >       94 </v>
  <v type="int" >      135 </v>
  <v type="int" >       11 </v>
  <v type="int" >      179 </v>
  <v type="int" >      127 </v>
  <v type="int" >      107 </v>
  <v type="int" >      119 </v>
  <v type="int" >       95 </v>
  <v type="int" >      155 </v>
  <v type="int" >       13 </v>
  <v type="int" >       27 </v>
  <v type="int" >       31 </v>
  <v type="int" >       14 </v>
  <v type="int" >       16 </v>
  <v type="int" >       39 </v>
  <v type="int" >       35 </v>
  <v type="int" >       55 </v>
  <v type="int" >       62 </v>
  <v type="int" >       78 </v>
  <v type="int" >        7 </v>
  <v type="int" >      143 </v>
  <v type="int" >      183 </v>
  <v type="int" >       15 </v>
 </varray>
 <kpoints>
  <generation param="Gamma">
   <v type="int" name="divisions">       2        2        2 </v>
   <v name="usershift">      0.00000000       0.00000000       0.00000000 </v>
   <v name="genvec1">      0.50000000       0.00000000       0.00000000 </v>
   <v name="genvec2">      0.00000000       0.50000000       0.00000000 </v>
   <v name="genvec3">      0.00000000       0.00000000       0.50000000 </v>
   <v name="shift">      0.00000000       0.00000000       0.00000000 </v>
  </generation>
  <varray name="kpointlist" >
   <v>       0.00000000       0.00000000       0.00000000 </v>
   <v>       0.50000000       0.00000000      -0.00000000 </v>
   <v>       0.00000000       0.50000000       0.00000000 </v>
   <v>       0.50000000       0.50000000      -0.00000000 </v>
   <v>      -0.00000000       0.00000000       0.50000000 </v>
   <v>       0.50000000       0.00000000       0.50000000 </v>
   <v>      -0.00000000       0.50000000       0.50000000 </v>
   <v>       0.50000000       0.50000000       0.50000000 </v>
  </varray>
  <varray name="weights" >
   <v>       0.12500000 </v>
   <v>       0.12500000 </v>
   <v>       0.12500000 </v>
   <v>       0.12500000 </v>
   <v>       0.12500000 </v>
   <v>       0.12500000 </v>
   <v>       0.12500000 </v>
   <v>       0.12500000 </v>
  </varray>
 </kpoints>
 <parameters>
  <separator name="general" >
   <i type="string" name="SYSTEM">unknown system</i>
   <i type="logical" name="LCOMPAT"> F  </i>
  </separator>
  <separator name="electronic" >
   <i type="string" name="PREC">accura</i>
   <i name="ENMAX">    650.00000000</i>
   <i name="ENAUG">    446.84200000</i>
   <i name="EDIFF">      0.00000001</i>
   <i type="int" name="IALGO">    38</i>
   <i type="int" name="IWAVPR">    10</i>
   <i type="int" name="NBANDS">  1075</i>
   <i name="NELECT">   1792.00000000</i>
   <i type="int" name="TURBO">     0</i>
   <i type="int" name="IRESTART">     0</i>
   <i type="int" name="NREBOOT">     0</i>
   <i type="int" name="NMIN">     0</i>
   <i name="EREF">      0.00000000</i>
   <separator name="electronic smearing" >
    <i type="int" name="ISMEAR">     0</i>
    <i name="SIGMA">      0.05000000</i>
    <i name="KSPACING">      0.50000000</i>
    <i type="logical" name="KGAMMA"> T  </i>
   </separator>
   <separator name="electronic projectors" >
    <i type="logical" name="LREAL"> F  </i>
    <v name="ROPT">      0.00000000      0.00000000</v>
    <i type="int" name="LMAXPAW">  -100</i>
    <i type="int" name="LMAXMIX">     2</i>
    <i type="logical" name="NLSPLINE"> F  </i>
   </separator>
   <separator name="electronic startup" >
    <i type="int" name="ISTART">     0</i>
    <i type="int" name="ICHARG">     1</i>
    <i type="int" name="INIWAV">     1</i>
   </separator>
   <separator name="electronic spin" >
    <i type="int" name="ISPIN">     1</i>
    <i type="logical" name="LNONCOLLINEAR"> F  </i>
    <v name="MAGMOM">      1.00000000      1.00000000      1.00000000      1.00000000      1.00000000      1.00000000      1.00000000      1.00000000      1.00000000      1.00000000      1.00000000      1.00000000      1.00000000      1.00000000      1.00000000      1.00000000      1.00000000      1.00000000      1.00000000      1.00000000
      1.00000000      1.00000000      1.00000000      1.00000000      1.00000000      1.00000000      1.00000000      1.00000000      1.00000000      1.00000000      1.00000000      1.00000000      1.00000000      1.00000000      1.00000000      1.00000000      1.00000000      1.00000000      1.00000000      1.00000000
      1.00000000      1.00000000      1.00000000      1.00000000      1.00000000      1.00000000      1.00000000      1.00000000      1.00000000      1.00000000      1.00000000      1.00000000      1.00000000      1.00000000      1.00000000      1.00000000      1.00000000      1.00000000      1.00000000      1.00000000
      1.00000000      1.00000000      1.00000000      1.00000000      1.00000000      1.00000000      1.00000000      1.00000000      1.00000000      1.00000000      1.00000000      1.00000000      1.00000000      1.00000000      1.00000000      1.00000000      1.00000000      1.00000000      1.00000000      1.00000000
      1.00000000      1.00000000      1.00000000      1.00000000      1.00000000      1.00000000      1.00000000      1.00000000      1.00000000      1.00000000      1.00000000      1.00000000      1.00000000      1.00000000      1.00000000      1.00000000      1.00000000      1.00000000      1.00000000      1.00000000
      1.00000000      1.00000000      1.00000000      1.00000000      1.00000000      1.00000000      1.00000000      1.00000000      1.00000000      1.00000000      1.00000000      1.00000000      1.00000000      1.00000000      1.00000000      1.00000000      1.00000000      1.00000000      1.00000000      1.00000000
      1.00000000      1.00000000      1.00000000      1.00000000      1.00000000      1.00000000      1.00000000      1.00000000      1.00000000      1.00000000      1.00000000      1.00000000      1.00000000      1.00000000      1.00000000      1.00000000      1.00000000      1.00000000      1.00000000      1.00000000
      1.00000000      1.00000000      1.00000000      1.00000000      1.00000000      1.00000000      1.00000000      1.00000000      1.00000000      1.00000000      1.00000000      1.00000000      1.00000000      1.00000000      1.00000000      1.00000000      1.00000000      1.00000000      1.00000000      1.00000000
      1.00000000      1.00000000      1.00000000      1.00000000      1.00000000      1.00000000      1.00000000      1.00000000      1.00000000      1.00000000      1.00000000      1.00000000      1.00000000      1.00000000      1.00000000      1.00000000      1.00000000      1.00000000      1.00000000      1.00000000
      1.00000000      1.00000000      1.00000000      1.00000000      1.00000000      1.00000000      1.00000000      1.00000000      1.00000000      1.00000000      1.00000000      1.00000000</v>
    <i name="NUPDOWN">     -1.00000000</i>
    <i type="logical" name="LSORBIT"> F  </i>
    <v name="SAXIS">      0.00000000      0.00000000      1.00000000</v>
    <i type="logical" name="LSPIRAL"> F  </i>
    <v name="QSPIRAL">      0.00000000      0.00000000      0.00000000</v>
    <i type="logical" name="LZEROZ"> F  </i>
   </separator>
   <separator name="electronic exchange-correlation" >
    <i type="logical" name="LASPH"> T  </i>
    <i type="logical" name="LMETAGGA"> F  </i>
   </separator>
   <separator name="electronic convergence" >
    <i type="int" name="NELM">   200</i>
    <i type="int" name="NELMDL">     0</i>
    <i type="int" name="NELMIN">     8</i>
    <i name="ENINI">    650.00000000</i>
    <separator name="electronic convergence detail" >
     <i type="logical" name="LDIAG"> T  </i>
     <i type="logical" name="LSUBROT"> F  </i>
     <i name="WEIMIN">      0.00000000</i>
     <i name="EBREAK">      0.00000000</i>
     <i name="DEPER">      0.30000000</i>
     <i type="int" name="NRMM">     4</i>
     <i name="TIME">      0.40000000</i>
    </separator>
   </separator>
   <separator name="electronic mixer" >
    <i name="AMIX">      0.40000000</i>
    <i name="BMIX">      1.00000000</i>
    <i name="AMIN">      0.10000000</i>
    <i name="AMIX_MAG">      1.60000000</i>
    <i name="BMIX_MAG">      1.00000000</i>
    <separator name="electronic mixer details" >
     <i type="int" name="IMIX">     4</i>
     <i type="logical" name="MIXFIRST"> F  </i>
     <i type="int" name="MAXMIX">   -45</i>
     <i name="WC">    100.00000000</i>
     <i type="int" name="INIMIX">     1</i>
     <i type="int" name="MIXPRE">     1</i>
     <i type="int" name="MREMOVE">     5</i>
    </separator>
   </separator>
   <separator name="electronic dipolcorrection" >
    <i type="logical" name="LDIPOL"> F  </i>
    <i type="logical" name="LMONO"> F  </i>
    <i type="int" name="IDIPOL">     0</i>
    <i name="EPSILON">      1.00000000</i>
    <v name="DIPOL">   -100.00000000   -100.00000000   -100.00000000</v>
    <i name="EFIELD">      0.00000000</i>
   </separator>
  </separator>
  <separator name="grids" >
   <i type="int" name="NGX">   150</i>
   <i type="int" name="NGY">   120</i>
   <i type="int" name="NGZ">   140</i>
   <i type="int" name="NGXF">   300</i>
   <i type="int" name="NGYF">   240</i>
   <i type="int" name="NGZF">   280</i>
   <i type="logical" name="ADDGRID"> T  </i>
  </separator>
  <separator name="ionic" >
   <i type="int" name="NSW">     0</i>
   <i type="int" name="IBRION">    -1</i>
   <i type="int" name="MDALGO">     0</i>
   <i type="int" name="ISIF">     3</i>
   <i name="PSTRESS">      0.00000000</i>
   <i name="EDIFFG">      0.00000010</i>
   <i type="int" name="NFREE">     0</i>
   <i name="POTIM">      0.50000000</i>
   <i name="SMASS">     -3.00000000</i>
   <i name="SCALEE">      1.00000000</i>
  </separator>
  <separator name="ionic md" >
   <i name="TEBEG">      0.00010000</i>
   <i name="TEEND">      0.00010000</i>
   <i type="int" name="NBLOCK">     1</i>
   <i type="int" name="KBLOCK">     1</i>
   <i type="int" name="NPACO">   256</i>
   <i name="APACO">     16.00000000</i>
  </separator>
  <separator name="symmetry" >
   <i type="int" name="ISYM">     2</i>
   <i name="SYMPREC">      0.00001000</i>
  </separator>
  <separator name="dos" >
   <i type="int" name="LORBIT">     0</i>
   <v name="RWIGS">     -1.00000000     -1.00000000</v>
   <i type="int" name="NEDOS">   301</i>
   <i name="EMIN">     10.00000000</i>
   <i name="EMAX">    -10.00000000</i>
   <i name="EFERMI">      0.00000000</i>
  </separator>
  <separator name="writing" >
   <i type="int" name="NWRITE">     2</i>
   <i type="logical" name="LWAVE"> F  </i>
   <i type="logical" name="LDOWNSAMPLE"> F  </i>
   <i type="logical" name="LCHARG"> T  </i>
   <i type="logical" name="LPARD"> F  </i>
   <i type="logical" name="LVTOT"> F  </i>
   <i type="logical" name="LVHAR"> F  </i>
   <i type="logical" name="LELF"> F  </i>
   <i type="logical" name="LOPTICS"> F  </i>
   <v name="STM">      0.00000000      0.00000000      0.00000000      0.00000000      0.00000000      0.00000000      0.00000000</v>
  </separator>
  <separator name="performance" >
   <i type="int" name="NPAR">     1</i>
   <i type="int" name="NSIM">     4</i>
   <i type="int" name="NBLK">    -1</i>
   <i type="logical" name="LPLANE"> T  </i>
   <i type="logical" name="LSCALAPACK"> T  </i>
   <i type="logical" name="LSCAAWARE"> F  </i>
   <i type="logical" name="LSCALU"> F  </i>
   <i type="logical" name="LASYNC"> F  </i>
   <i type="logical" name="LORBITALREAL"> F  </i>
  </separator>
  <separator name="miscellaneous" >
   <i type="int" name="IDIOT">     3</i>
   <i type="int" name="ISPECIAL">     0</i>
   <i type="logical" name="LMUSIC"> F  </i>
   <v name="POMASS">     78.96000000    107.86800000</v>
   <v name="DARWINR">      0.00000000      0.00000000</v>
   <v name="DARWINV">      1.00000000      1.00000000</v>
   <i type="logical" name="LCORR"> T  </i>
  </separator>
  <i type="logical" name="GGA_COMPAT"> T  </i>
  <i type="logical" name="LBERRY"> F  </i>
  <i type="int" name="ICORELEVEL">     0</i>
  <i type="logical" name="LDAU"> F  </i>
  <i type="int" name="I_CONSTRAINED_M">     0</i>
  <separator name="electronic exchange-correlation" >
   <i type="string" name="GGA">PS</i>
   <i type="int" name="VOSKOWN">     0</i>
   <i type="logical" name="LHFCALC"> F  </i>
   <i type="string" name="PRECFOCK"></i>
   <i type="logical" name="LSYMGRAD"> F  </i>
   <i type="logical" name="LHFONE"> F  </i>
   <i type="logical" name="LRHFCALC"> F  </i>
   <i type="logical" name="LTHOMAS"> F  </i>
   <i type="logical" name="LMODELHF"> F  </i>
   <i name="ENCUT4O">     -1.00000000</i>
   <i type="int" name="EXXOEP">     0</i>
   <i type="int" name="FOURORBIT">     0</i>
   <i name="AEXX">      0.00000000</i>
   <i name="HFALPHA">      0.00000000</i>
   <i name="MCALPHA">      0.00000000</i>
   <i name="ALDAX">      1.00000000</i>
   <i name="AGGAX">      1.00000000</i>
   <i name="ALDAC">      1.00000000</i>
   <i name="AGGAC">      1.00000000</i>
   <i type="int" name="NKREDX">     1</i>
   <i type="int" name="NKREDY">     1</i>
   <i type="int" name="NKREDZ">     1</i>
   <i type="logical" name="SHIFTRED"> F  </i>
   <i type="logical" name="ODDONLY"> F  </i>
   <i type="logical" name="EVENONLY"> F  </i>
   <i type="int" name="LMAXFOCK">     0</i>
   <i type="int" name="NMAXFOCKAE">     0</i>
   <i type="logical" name="LFOCKAEDFT"> F  </i>
   <i name="HFSCREEN">      0.00000000</i>
   <i name="HFSCREENC">      0.00000000</i>
   <i type="int" name="NBANDSGWLOW">     0</i>
  </separator>
  <separator name="vdW DFT" >
   <i type="logical" name="LUSE_VDW"> F  </i>
   <i name="Zab_VDW">     -0.84910000</i>
   <i name="PARAM1">      0.12340000</i>
   <i name="PARAM2">      1.00000000</i>
   <i name="PARAM3">      0.00000000</i>
  </separator>
  <separator name="model GW" >
   <i type="int" name="MODEL_GW">     0</i>
   <i name="MODEL_EPS0">     11.58913698</i>
   <i name="MODEL_ALPHA">      1.00000000</i>
  </separator>
  <separator name="linear response parameters" >
   <i type="logical" name="LEPSILON"> F  </i>
   <i type="logical" name="LRPA"> F  </i>
   <i type="logical" name="LNABLA"> F  </i>
   <i type="logical" name="LVEL"> F  </i>
   <i type="int" name="KINTER">     0</i>
   <i name="CSHIFT">      0.10000000</i>
   <i name="OMEGAMAX">     -1.00000000</i>
   <i name="DEG_THRESHOLD">      0.00200000</i>
   <i name="RTIME">     -0.10000000</i>
   <i name="WPLASMAI">      0.00000000</i>
   <v name="DFIELD">      0.00000000      0.00000000      0.00000000</v>
   <v name="WPLASMA">      0.00000000      0.00000000      0.00000000      0.00000000      0.00000000      0.00000000      0.00000000      0.00000000      0.00000000</v>
  </separator>
  <separator name="orbital magnetization" >
   <i type="logical" name="NUCIND"> F  </i>
   <v name="MAGPOS">      0.00000000      0.00000000      0.00000000</v>
   <i type="logical" name="LNICSALL"> T  </i>
   <i type="logical" name="ORBITALMAG"> F  </i>
   <i type="logical" name="LMAGBLOCH"> F  </i>
   <i type="logical" name="LCHIMAG"> F  </i>
   <i type="logical" name="LGAUGE"> T  </i>
   <i type="int" name="MAGATOM">     0</i>
   <v name="MAGDIPOL">      0.00000000      0.00000000      0.00000000</v>
   <v name="AVECCONST">      0.00000000      0.00000000      0.00000000</v>
  </separator>
  <separator name="response functions" >
   <i type="logical" name="LADDER"> F  </i>
   <i type="logical" name="LRPAFORCE"> F  </i>
   <i type="logical" name="LFXC"> F  </i>
   <i type="logical" name="LHARTREE"> T  </i>
   <i type="int" name="IBSE">     0</i>
   <v type="int" name="KPOINT">    -1     0     0     0</v>
   <i type="logical" name="LTCTE"> F  </i>
   <i type="logical" name="LTETE"> F  </i>
   <i type="logical" name="LTRIPLET"> F  </i>
   <i type="logical" name="LFXCEPS"> F  </i>
   <i type="logical" name="LFXHEG"> F  </i>
   <i type="int" name="NATURALO">     2</i>
   <i type="logical" name="L2ORDER"> F  </i>
   <i type="logical" name="LMP2LT"> F  </i>
   <i type="logical" name="LUSEW"> F  </i>
   <i name="ENCUTGW">     -2.00000000</i>
   <i name="ENCUTGWSOFT">     -2.00000000</i>
   <i name="ENCUTLF">     -1.00000000</i>
   <i type="int" name="LMAXMP2">    -1</i>
   <i name="SCISSOR">      0.00000000</i>
   <i type="int" name="NOMEGA">     0</i>
   <i type="int" name="NOMEGAR">     0</i>
   <i type="int" name="NBANDSGW">    -1</i>
   <i type="int" name="NBANDSO">    -1</i>
   <i type="int" name="NBANDSV">    -1</i>
   <i type="int" name="NELM">   200</i>
   <i type="int" name="NELMHF">     1</i>
   <i type="int" name="DIM">     3</i>
   <i type="int" name="ANTIRES">     0</i>
   <i name="OMEGAMAX">    -30.00000000</i>
   <i name="OMEGAMIN">    -30.00000000</i>
   <i name="OMEGATL">   -200.00000000</i>
   <i type="int" name="OMEGAGRID">   140</i>
   <i name="CSHIFT">     -0.10000000</i>
   <i type="logical" name="SELFENERGY"> F  </i>
   <i type="logical" name="LSPECTRAL"> F  </i>
   <i type="logical" name="LSPECTRALGW"> F  </i>
   <i type="logical" name="LSINGLES"> F  </i>
   <i type="logical" name="LFERMIGW"> F  </i>
   <i type="logical" name="ODDONLYGW"> F  </i>
   <i type="logical" name="EVENONLYGW"> F  </i>
   <i type="int" name="NKREDLFX">     1</i>
   <i type="int" name="NKREDLFY">     1</i>
   <i type="int" name="NKREDLFZ">     1</i>
   <i type="int" name="MAXMEM">  2800</i>
   <i type="int" name="TELESCOPE">     0</i>
   <i type="int" name="TAUPAR">     1</i>
   <i type="int" name="OMEGAPAR">    -1</i>
   <i name="LAMBDA">      1.00000000</i>
  </separator>
  <separator name="External order field" >
   <i name="OFIELD_KAPPA">      0.00000000</i>
   <v name="OFIELD_K">      0.00000000      0.00000000      0.00000000</v>
   <i name="OFIELD_Q6_NEAR">      0.00000000</i>
   <i name="OFIELD_Q6_FAR">      0.00000000</i>
   <i name="OFIELD_A">      0.00000000</i>
  </separator>
 </parameters>
 <atominfo>
  <atoms>     192 </atoms>
  <types>       2 </types>
  <array name="atoms" >
   <dimension dim="1">ion</dimension>
   <field type="string">element</field>
   <field type="int">atomtype</field>
   <set>
    <rc><c>Se</c><c>   1</c></rc>
    <rc><c>Se</c><c>   1</c></rc>
    <rc><c>Se</c><c>   1</c></rc>
    <rc><c>Se</c><c>   1</c></rc>
    <rc><c>Se</c><c>   1</c></rc>
    <rc><c>Se</c><c>   1</c></rc>
    <rc><c>Se</c><c>   1</c></rc>
    <rc><c>Se</c><c>   1</c></rc>
    <rc><c>Se</c><c>   1</c></rc>
    <rc><c>Se</c><c>   1</c></rc>
    <rc><c>Se</c><c>   1</c></rc>
    <rc><c>Se</c><c>   1</c></rc>
    <rc><c>Se</c><c>   1</c></rc>
    <rc><c>Se</c><c>   1</c></rc>
    <rc><c>Se</c><c>   1</c></rc>
    <rc><c>Se</c><c>   1</c></rc>
    <rc><c>Se</c><c>   1</c></rc>
    <rc><c>Se</c><c>   1</c></rc>
    <rc><c>Se</c><c>   1</c></rc>
    <rc><c>Se</c><c>   1</c></rc>
    <rc><c>Se</c><c>   1</c></rc>
    <rc><c>Se</c><c>   1</c></rc>
    <rc><c>Se</c><c>   1</c></rc>
    <rc><c>Se</c><c>   1</c></rc>
    <rc><c>Se</c><c>   1</c></rc>
    <rc><c>Se</c><c>   1</c></rc>
    <rc><c>Se</c><c>   1</c></rc>
    <rc><c>Se</c><c>   1</c></rc>
    <rc><c>Se</c><c>   1</c></rc>
    <rc><c>Se</c><c>   1</c></rc>
    <rc><c>Se</c><c>   1</c></rc>
    <rc><c>Se</c><c>   1</c></rc>
    <rc><c>Se</c><c>   1</c></rc>
    <rc><c>Se</c><c>   1</c></rc>
    <rc><c>Se</c><c>   1</c></rc>
    <rc><c>Se</c><c>   1</c></rc>
    <rc><c>Se</c><c>   1</c></rc>
    <rc><c>Se</c><c>   1</c></rc>
    <rc><c>Se</c><c>   1</c></rc>
    <rc><c>Se</c><c>   1</c></rc>
    <rc><c>Se</c><c>   1</c></rc>
    <rc><c>Se</c><c>   1</c></rc>
    <rc><c>Se</c><c>   1</c></rc>
    <rc><c>Se</c><c>   1</c></rc>
    <rc><c>Se</c><c>   1</c></rc>
    <rc><c>Se</c><c>   1</c></rc>
    <rc><c>Se</c><c>   1</c></rc>
    <rc><c>Se</c><c>   1</c></rc>
    <rc><c>Se</c><c>   1</c></rc>
    <rc><c>Se</c><c>   1</c></rc>
    <rc><c>Se</c><c>   1</c></rc>
    <rc><c>Se</c><c>   1</c></rc>
    <rc><c>Se</c><c>   1</c></rc>
    <rc><c>Se</c><c>   1</c></rc>
    <rc><c>Se</c><c>   1</c></rc>
    <rc><c>Se</c><c>   1</c></rc>
    <rc><c>Se</c><c>   1</c></rc>
    <rc><c>Se</c><c>   1</c></rc>
    <rc><c>Se</c><c>   1</c></rc>
    <rc><c>Se</c><c>   1</c></rc>
    <rc><c>Se</c><c>   1</c></rc>
    <rc><c>Se</c><c>   1</c></rc>
    <rc><c>Se</c><c>   1</c></rc>
    <rc><c>Se</c><c>   1</c></rc>
    <rc><c>Ag</c><c>   2</c></rc>
    <rc><c>Ag</c><c>   2</c></rc>
    <rc><c>Ag</c><c>   2</c></rc>
    <rc><c>Ag</c><c>   2</c></rc>
    <rc><c>Ag</c><c>   2</c></rc>
    <rc><c>Ag</c><c>   2</c></rc>
    <rc><c>Ag</c><c>   2</c></rc>
    <rc><c>Ag</c><c>   2</c></rc>
    <rc><c>Ag</c><c>   2</c></rc>
    <rc><c>Ag</c><c>   2</c></rc>
    <rc><c>Ag</c><c>   2</c></rc>
    <rc><c>Ag</c><c>   2</c></rc>
    <rc><c>Ag</c><c>   2</c></rc>
    <rc><c>Ag</c><c>   2</c></rc>
    <rc><c>Ag</c><c>   2</c></rc>
    <rc><c>Ag</c><c>   2</c></rc>
    <rc><c>Ag</c><c>   2</c></rc>
    <rc><c>Ag</c><c>   2</c></rc>
    <rc><c>Ag</c><c>   2</c></rc>
    <rc><c>Ag</c><c>   2</c></rc>
    <rc><c>Ag</c><c>   2</c></rc>
    <rc><c>Ag</c><c>   2</c></rc>
    <rc><c>Ag</c><c>   2</c></rc>
    <rc><c>Ag</c><c>   2</c></rc>
    <rc><c>Ag</c><c>   2</c></rc>
    <rc><c>Ag</c><c>   2</c></rc>
    <rc><c>Ag</c><c>   2</c></rc>
    <rc><c>Ag</c><c>   2</c></rc>
    <rc><c>Ag</c><c>   2</c></rc>
    <rc><c>Ag</c><c>   2</c></rc>
    <rc><c>Ag</c><c>   2</c></rc>
    <rc><c>Ag</c><c>   2</c></rc>
    <rc><c>Ag</c><c>   2</c></rc>
    <rc><c>Ag</c><c>   2</c></rc>
    <rc><c>Ag</c><c>   2</c></rc>
    <rc><c>Ag</c><c>   2</c></rc>
    <rc><c>Ag</c><c>   2</c></rc>
    <rc><c>Ag</c><c>   2</c></rc>
    <rc><c>Ag</c><c>   2</c></rc>
    <rc><c>Ag</c><c>   2</c></rc>
    <rc><c>Ag</c><c>   2</c></rc>
    <rc><c>Ag</c><c>   2</c></rc>
    <rc><c>Ag</c><c>   2</c></rc>
    <rc><c>Ag</c><c>   2</c></rc>
    <rc><c>Ag</c><c>   2</c></rc>
    <rc><c>Ag</c><c>   2</c></rc>
    <rc><c>Ag</c><c>   2</c></rc>
    <rc><c>Ag</c><c>   2</c></rc>
    <rc><c>Ag</c><c>   2</c></rc>
    <rc><c>Ag</c><c>   2</c></rc>
    <rc><c>Ag</c><c>   2</c></rc>
    <rc><c>Ag</c><c>   2</c></rc>
    <rc><c>Ag</c><c>   2</c></rc>
    <rc><c>Ag</c><c>   2</c></rc>
    <rc><c>Ag</c><c>   2</c></rc>
    <rc><c>Ag</c><c>   2</c></rc>
    <rc><c>Ag</c><c>   2</c></rc>
    <rc><c>Ag</c><c>   2</c></rc>
    <rc><c>Ag</c><c>   2</c></rc>
    <rc><c>Ag</c><c>   2</c></rc>
    <rc><c>Ag</c><c>   2</c></rc>
    <rc><c>Ag</c><c>   2</c></rc>
    <rc><c>Ag</c><c>   2</c></rc>
    <rc><c>Ag</c><c>   2</c></rc>
    <rc><c>Ag</c><c>   2</c></rc>
    <rc><c>Ag</c><c>   2</c></rc>
    <rc><c>Ag</c><c>   2</c></rc>
    <rc><c>Ag</c><c>   2</c></rc>
    <rc><c>Ag</c><c>   2</c></rc>
    <rc><c>Ag</c><c>   2</c></rc>
    <rc><c>Ag</c><c>   2</c></rc>
    <rc><c>Ag</c><c>   2</c></rc>
    <rc><c>Ag</c><c>   2</c></rc>
    <rc><c>Ag</c><c>   2</c></rc>
    <rc><c>Ag</c><c>   2</c></rc>
    <rc><c>Ag</c><c>   2</c></rc>
    <rc><c>Ag</c><c>   2</c></rc>
    <rc><c>Ag</c><c>   2</c></rc>
    <rc><c>Ag</c><c>   2</c></rc>
    <rc><c>Ag</c><c>   2</c></rc>
    <rc><c>Ag</c><c>   2</c></rc>
    <rc><c>Ag</c><c>   2</c></rc>
    <rc><c>Ag</c><c>   2</c></rc>
    <rc><c>Ag</c><c>   2</c></rc>
    <rc><c>Ag</c><c>   2</c></rc>
    <rc><c>Ag</c><c>   2</c></rc>
    <rc><c>Ag</c><c>   2</c></rc>
    <rc><c>Ag</c><c>   2</c></rc>
    <rc><c>Ag</c><c>   2</c></rc>
    <rc><c>Ag</c><c>   2</c></rc>
    <rc><c>Ag</c><c>   2</c></rc>
    <rc><c>Ag</c><c>   2</c></rc>
    <rc><c>Ag</c><c>   2</c></rc>
    <rc><c>Ag</c><c>   2</c></rc>
    <rc><c>Ag</c><c>   2</c></rc>
    <rc><c>Ag</c><c>   2</c></rc>
    <rc><c>Ag</c><c>   2</c></rc>
    <rc><c>Ag</c><c>   2</c></rc>
    <rc><c>Ag</c><c>   2</c></rc>
    <rc><c>Ag</c><c>   2</c></rc>
    <rc><c>Ag</c><c>   2</c></rc>
    <rc><c>Ag</c><c>   2</c></rc>
    <rc><c>Ag</c><c>   2</c></rc>
    <rc><c>Ag</c><c>   2</c></rc>
    <rc><c>Ag</c><c>   2</c></rc>
    <rc><c>Ag</c><c>   2</c></rc>
    <rc><c>Ag</c><c>   2</c></rc>
    <rc><c>Ag</c><c>   2</c></rc>
    <rc><c>Ag</c><c>   2</c></rc>
    <rc><c>Ag</c><c>   2</c></rc>
    <rc><c>Ag</c><c>   2</c></rc>
    <rc><c>Ag</c><c>   2</c></rc>
    <rc><c>Ag</c><c>   2</c></rc>
    <rc><c>Ag</c><c>   2</c></rc>
    <rc><c>Ag</c><c>   2</c></rc>
    <rc><c>Ag</c><c>   2</c></rc>
    <rc><c>Ag</c><c>   2</c></rc>
    <rc><c>Ag</c><c>   2</c></rc>
    <rc><c>Ag</c><c>   2</c></rc>
    <rc><c>Ag</c><c>   2</c></rc>
    <rc><c>Ag</c><c>   2</c></rc>
    <rc><c>Ag</c><c>   2</c></rc>
    <rc><c>Ag</c><c>   2</c></rc>
    <rc><c>Ag</c><c>   2</c></rc>
    <rc><c>Ag</c><c>   2</c></rc>
    <rc><c>Ag</c><c>   2</c></rc>
    <rc><c>Ag</c><c>   2</c></rc>
    <rc><c>Ag</c><c>   2</c></rc>
   </set>
  </array>
  <array name="atomtypes" >
   <dimension dim="1">type</dimension>
   <field type="int">atomspertype</field>
   <field type="string">element</field>
   <field>mass</field>
   <field>valence</field>
   <field type="string">pseudopotential</field>
   <set>
    <rc><c>  64</c><c>Se</c><c>     78.96000000</c><c>      6.00000000</c><c>  PAW_PBE Se 06Sep2000                  </c></rc>
    <rc><c> 128</c><c>Ag</c><c>    107.86800000</c><c>     11.00000000</c><c>  PAW_PBE Ag 02Apr2005                  </c></rc>
   </set>
  </array>
 </atominfo>
 <structure name="initialpos" >
  <crystal>
   <varray name="basis" >
    <v>      17.67434300       0.00000000       0.02590756 </v>
    <v>       0.00000000      13.77516210       0.00000000 </v>
    <v>      -4.23144168       0.00000000      15.22594286 </v>
   </varray>
   <i name="volume">   3708.52383470 </i>
   <varray name="rec_basis" >
    <v>       0.05655615       0.00000000       0.01571752 </v>
    <v>       0.00000000       0.07259443       0.00000000 </v>
    <v>      -0.00009623       0.00000000       0.06565063 </v>
   </varray>
  </crystal>
  <varray name="positions" >
   <v>       0.08031353       0.12413882       0.07841826 </v>
   <v>       0.33031353       0.12413882       0.07841826 </v>
   <v>       0.58031353       0.12413882       0.07841826 </v>
   <v>       0.83031353       0.12413882       0.07841826 </v>
   <v>       0.08031353       0.62413882       0.07841826 </v>
   <v>       0.33031353       0.62413882       0.07841826 </v>
   <v>       0.58031353       0.62413882       0.07841826 </v>
   <v>       0.83031353       0.62413882       0.07841826 </v>
   <v>       0.08031353       0.12413882       0.57841826 </v>
   <v>       0.33031353       0.12413882       0.57841826 </v>
   <v>       0.58031353       0.12413882       0.57841826 </v>
   <v>       0.83031353       0.12413882       0.57841826 </v>
   <v>       0.08031353       0.62413882       0.57841826 </v>
   <v>       0.33031353       0.62413882       0.57841826 </v>
   <v>       0.58031353       0.62413882       0.57841826 </v>
   <v>       0.83031353       0.62413882       0.57841826 </v>
   <v>       0.04468646       0.37413882       0.17158168 </v>
   <v>       0.29468646       0.37413882       0.17158168 </v>
   <v>       0.54468646       0.37413882       0.17158168 </v>
   <v>       0.79468646       0.37413882       0.17158168 </v>
   <v>       0.04468646       0.87413882       0.17158168 </v>
   <v>       0.29468646       0.87413882       0.17158168 </v>
   <v>       0.54468646       0.87413882       0.17158168 </v>
   <v>       0.79468646       0.87413882       0.17158168 </v>
   <v>       0.04468646       0.37413882       0.67158168 </v>
   <v>       0.29468646       0.37413882       0.67158168 </v>
   <v>       0.54468646       0.37413882       0.67158168 </v>
   <v>       0.79468646       0.37413882       0.67158168 </v>
   <v>       0.04468646       0.87413882       0.67158168 </v>
   <v>       0.29468646       0.87413882       0.67158168 </v>
   <v>       0.54468646       0.87413882       0.67158168 </v>
   <v>       0.79468646       0.87413882       0.67158168 </v>
   <v>       0.16968646       0.37586118       0.42158168 </v>
   <v>       0.41968646       0.37586118       0.42158168 </v>
   <v>       0.66968646       0.37586118       0.42158168 </v>
   <v>       0.91968646       0.37586118       0.42158168 </v>
   <v>       0.16968646       0.87586118       0.42158168 </v>
   <v>       0.41968646       0.87586118       0.42158168 </v>
   <v>       0.66968646       0.87586118       0.42158168 </v>
   <v>       0.91968646       0.87586118       0.42158168 </v>
   <v>       0.16968646       0.37586118       0.92158168 </v>
   <v>       0.41968646       0.37586118       0.92158168 </v>
   <v>       0.66968646       0.37586118       0.92158168 </v>
   <v>       0.91968646       0.37586118       0.92158168 </v>
   <v>       0.16968646       0.87586118       0.92158168 </v>
   <v>       0.41968646       0.87586118       0.92158168 </v>
   <v>       0.66968646       0.87586118       0.92158168 </v>
   <v>       0.91968646       0.87586118       0.92158168 </v>
   <v>       0.20531353       0.12586118       0.32841826 </v>
   <v>       0.45531353       0.12586118       0.32841826 </v>
   <v>       0.70531353       0.12586118       0.32841826 </v>
   <v>       0.95531353       0.12586118       0.32841826 </v>
   <v>       0.20531353       0.62586118       0.32841826 </v>
   <v>       0.45531353       0.62586118       0.32841826 </v>
   <v>       0.70531353       0.62586118       0.32841826 </v>
   <v>       0.95531353       0.62586118       0.32841826 </v>
   <v>       0.20531353       0.12586118       0.82841826 </v>
   <v>       0.45531353       0.12586118       0.82841826 </v>
   <v>       0.70531353       0.12586118       0.82841826 </v>
   <v>       0.95531353       0.12586118       0.82841826 </v>
   <v>       0.20531353       0.62586118       0.82841826 </v>
   <v>       0.45531353       0.62586118       0.82841826 </v>
   <v>       0.70531353       0.62586118       0.82841826 </v>
   <v>       0.95531353       0.62586118       0.82841826 </v>
   <v>       0.19181221       0.01122259       0.17066697 </v>
   <v>       0.44181221       0.01122259       0.17003418 </v>
   <v>       0.69181221       0.01122259       0.17003418 </v>
   <v>       0.94181221       0.01122259       0.17003418 </v>
   <v>       0.19181221       0.51122259       0.17003418 </v>
   <v>       0.44181221       0.51122259       0.17003418 </v>
   <v>       0.69181221       0.51122259       0.17003418 </v>
   <v>       0.94181221       0.51122259       0.17003418 </v>
   <v>       0.19181221       0.01122259       0.67003418 </v>
   <v>       0.44181221       0.01122259       0.67003418 </v>
   <v>       0.69181221       0.01122259       0.67003418 </v>
   <v>       0.94181221       0.01122259       0.67003418 </v>
   <v>       0.19181221       0.51122259       0.67003418 </v>
   <v>       0.44181221       0.51122259       0.67003418 </v>
   <v>       0.69181221       0.51122259       0.67003418 </v>
   <v>       0.94181221       0.51122259       0.67003418 </v>
   <v>       0.18318778       0.26122259       0.07996576 </v>
   <v>       0.43318778       0.26122259       0.07996576 </v>
   <v>       0.68318778       0.26122259       0.07996576 </v>
   <v>       0.93318778       0.26122259       0.07996576 </v>
   <v>       0.18318778       0.76122259       0.07996576 </v>
   <v>       0.43318778       0.76122259       0.07996576 </v>
   <v>       0.68318778       0.76122259       0.07996576 </v>
   <v>       0.93318778       0.76122259       0.07996576 </v>
   <v>       0.18318778       0.26122259       0.57996576 </v>
   <v>       0.43318778       0.26122259       0.57996576 </v>
   <v>       0.68318778       0.26122259       0.57996576 </v>
   <v>       0.93318778       0.26122259       0.57996576 </v>
   <v>       0.18318778       0.76122259       0.57996576 </v>
   <v>       0.43318778       0.76122259       0.57996576 </v>
   <v>       0.68318778       0.76122259       0.57996576 </v>
   <v>       0.93318778       0.76122259       0.57996576 </v>
   <v>       0.05818778       0.48877741       0.32996576 </v>
   <v>       0.30818778       0.48877741       0.32996576 </v>
   <v>       0.55818778       0.48877741       0.32996576 </v>
   <v>       0.80818778       0.48877741       0.32996576 </v>
   <v>       0.05818778       0.98877741       0.32996576 </v>
   <v>       0.30818778       0.98877741       0.32996576 </v>
   <v>       0.55818778       0.98877741       0.32996576 </v>
   <v>       0.80818778       0.98877741       0.32996576 </v>
   <v>       0.05818778       0.48877741       0.82996576 </v>
   <v>       0.30818778       0.48877741       0.82996576 </v>
   <v>       0.55818778       0.48877741       0.82996576 </v>
   <v>       0.80818778       0.48877741       0.82996576 </v>
   <v>       0.05818778       0.98877741       0.82996576 </v>
   <v>       0.30818778       0.98877741       0.82996576 </v>
   <v>       0.55818778       0.98877741       0.82996576 </v>
   <v>       0.80818778       0.98877741       0.82996576 </v>
   <v>       0.06681221       0.23877741       0.42003418 </v>
   <v>       0.31681221       0.23877741       0.42003418 </v>
   <v>       0.56681221       0.23877741       0.42003418 </v>
   <v>       0.81681221       0.23877741       0.42003418 </v>
   <v>       0.06681221       0.73877741       0.42003418 </v>
   <v>       0.31681221       0.73877741       0.42003418 </v>
   <v>       0.56681221       0.73877741       0.42003418 </v>
   <v>       0.81681221       0.73877741       0.42003418 </v>
   <v>       0.06681221       0.23877741       0.92003418 </v>
   <v>       0.31681221       0.23877741       0.92003418 </v>
   <v>       0.56681221       0.23877741       0.92003418 </v>
   <v>       0.81681221       0.23877741       0.92003418 </v>
   <v>       0.06681221       0.73877741       0.92003418 </v>
   <v>       0.31681221       0.73877741       0.92003418 </v>
   <v>       0.56681221       0.73877741       0.92003418 </v>
   <v>       0.81681221       0.73877741       0.92003418 </v>
   <v>       0.05608512       0.18037250       0.23351950 </v>
   <v>       0.30608512       0.18037250       0.23351950 </v>
   <v>       0.55608512       0.18037250       0.23351950 </v>
   <v>       0.80608512       0.18037250       0.23351950 </v>
   <v>       0.05608512       0.68037250       0.23351950 </v>
   <v>       0.30608512       0.68037250       0.23351950 </v>
   <v>       0.55608512       0.68037250       0.23351950 </v>
   <v>       0.80608512       0.68037250       0.23351950 </v>
   <v>       0.05608512       0.18037250       0.73351950 </v>
   <v>       0.30608512       0.18037250       0.73351950 </v>
   <v>       0.55608512       0.18037250       0.73351950 </v>
   <v>       0.80608512       0.18037250       0.73351950 </v>
   <v>       0.05608512       0.68037250       0.73351950 </v>
   <v>       0.30608512       0.68037250       0.73351950 </v>
   <v>       0.55608512       0.68037250       0.73351950 </v>
   <v>       0.80608512       0.68037250       0.73351950 </v>
   <v>       0.06891487       0.43037250       0.01648043 </v>
   <v>       0.31891487       0.43037250       0.01648043 </v>
   <v>       0.56891487       0.43037250       0.01648043 </v>
   <v>       0.81891487       0.43037250       0.01648043 </v>
   <v>       0.06891487       0.93037250       0.01648043 </v>
   <v>       0.31891487       0.93037250       0.01648043 </v>
   <v>       0.56891487       0.93037250       0.01648043 </v>
   <v>       0.81891487       0.93037250       0.01648043 </v>
   <v>       0.06891487       0.43037250       0.51648043 </v>
   <v>       0.31891487       0.43037250       0.51648043 </v>
   <v>       0.56891487       0.43037250       0.51648043 </v>
   <v>       0.81891487       0.43037250       0.51648043 </v>
   <v>       0.06891487       0.93037250       0.51648043 </v>
   <v>       0.31891487       0.93037250       0.51648043 </v>
   <v>       0.56891487       0.93037250       0.51648043 </v>
   <v>       0.81891487       0.93037250       0.51648043 </v>
   <v>       0.19391487       0.31962750       0.26648043 </v>
   <v>       0.44391487       0.31962750       0.26648043 </v>
   <v>       0.69391487       0.31962750       0.26648043 </v>
   <v>       0.94391487       0.31962750       0.26648043 </v>
   <v>       0.19391487       0.81962750       0.26648043 </v>
   <v>       0.44391487       0.81962750       0.26648043 </v>
   <v>       0.69391487       0.81962750       0.26648043 </v>
   <v>       0.94391487       0.81962750       0.26648043 </v>
   <v>       0.19391487       0.31962750       0.76648043 </v>
   <v>       0.44391487       0.31962750       0.76648043 </v>
   <v>       0.69391487       0.31962750       0.76648043 </v>
   <v>       0.94391487       0.31962750       0.76648043 </v>
   <v>       0.19391487       0.81962750       0.76648043 </v>
   <v>       0.44391487       0.81962750       0.76648043 </v>
   <v>       0.69391487       0.81962750       0.76648043 </v>
   <v>       0.94391487       0.81962750       0.76648043 </v>
   <v>       0.18108512       0.06962750       0.48351950 </v>
   <v>       0.43108512       0.06962750       0.48351950 </v>
   <v>       0.68108512       0.06962750       0.48351950 </v>
   <v>       0.93108512       0.06962750       0.48351950 </v>
   <v>       0.18108512       0.56962750       0.48351950 </v>
   <v>       0.43108512       0.56962750       0.48351950 </v>
   <v>       0.68108512       0.56962750       0.48351950 </v>
   <v>       0.93108512       0.56962750       0.48351950 </v>
   <v>       0.18108512       0.06962750       0.98351950 </v>
   <v>       0.43108512       0.06962750       0.98351950 </v>
   <v>       0.68108512       0.06962750       0.98351950 </v>
   <v>       0.93108512       0.06962750       0.98351950 </v>
   <v>       0.18108512       0.56962750       0.98351950 </v>
   <v>       0.43108512       0.56962750       0.98351950 </v>
   <v>       0.68108512       0.56962750       0.98351950 </v>
   <v>       0.93108512       0.56962750       0.98351950 </v>
  </varray>
 </structure>
 <calculation>
  <scstep>
   <time name="dav"> 2128.45 2133.94</time>
   <time name="total"> 2133.22 2138.72</time>
   <energy>
    <i name="alphaZ">   6580.02941619 </i>
    <i name="ewald">-132336.43304761 </i>
    <i name="hartreedc"> -32543.97806132 </i>
    <i name="XCdc">  -1230.85653378 </i>
    <i name="pawpsdc"> 163058.89803092 </i>
    <i name="pawaedc">-156650.78792849 </i>
    <i name="eentropy">     -0.05483758 </i>
    <i name="bandstr">  18043.22644746 </i>
    <i name="atom"> 149175.97080046 </i>
    <i name="e_fr_energy">  14096.01428625 </i>
    <i name="e_wo_entrp">  14096.06912383 </i>
    <i name="e_0_energy">  14096.04170504 </i>
   </energy>
  </scstep>
  <scstep>
   <time name="dav"> 2427.76 2433.75</time>
   <time name="total"> 2427.78 2433.76</time>
   <energy>
    <i name="e_fr_energy">    199.14936368 </i>
    <i name="e_wo_entrp">    199.16154733 </i>
    <i name="e_0_energy">    199.15545551 </i>
   </energy>
  </scstep>
  <scstep>
   <time name="dav"> 2545.48 2551.70</time>
   <time name="total"> 2545.49 2551.71</time>
   <energy>
    <i name="e_fr_energy">   -655.01890031 </i>
    <i name="e_wo_entrp">   -655.01206740 </i>
    <i name="e_0_energy">   -655.01548385 </i>
   </energy>
  </scstep>
  <scstep>
   <time name="dav"> 2496.59 2502.83</time>
   <time name="total"> 2496.60 2502.84</time>
   <energy>
    <i name="e_fr_energy">   -676.15568868 </i>
    <i name="e_wo_entrp">   -676.14800909 </i>
    <i name="e_0_energy">   -676.15184889 </i>
   </energy>
  </scstep>
  <scstep>
   <time name="dav"> 2532.55 2539.05</time>
   <time name="total"> 2560.91 2567.50</time>
   <energy>
    <i name="e_fr_energy">   -676.43127894 </i>
    <i name="e_wo_entrp">   -676.42359722 </i>
    <i name="e_0_energy">   -676.42743808 </i>
   </energy>
  </scstep>
  <scstep>
   <time name="dav"> 2473.90 2479.99</time>
   <time name="total"> 2506.89 2513.08</time>
   <energy>
    <i name="e_fr_energy">   -676.41968068 </i>
    <i name="e_wo_entrp">   -676.41201687 </i>
    <i name="e_0_energy">   -676.41584878 </i>
   </energy>
  </scstep>
  <scstep>
   <time name="dav"> 2525.01 2531.04</time>
   <time name="total"> 2558.17 2564.30</time>
   <energy>
    <i name="e_fr_energy">   -676.42005088 </i>
    <i name="e_wo_entrp">   -676.41238882 </i>
    <i name="e_0_energy">   -676.41621985 </i>
   </energy>
  </scstep>
  <scstep>
   <time name="dav"> 2485.41 2491.41</time>
   <time name="total"> 2518.49 2524.57</time>
   <energy>
    <i name="e_fr_energy">   -676.42006135 </i>
    <i name="e_wo_entrp">   -676.41239969 </i>
    <i name="e_0_energy">   -676.41623052 </i>
   </energy>
  </scstep>
  <scstep>
   <time name="dav"> 2513.93 2520.13</time>
   <time name="total"> 2547.06 2553.35</time>
   <energy>
    <i name="e_fr_energy">   -676.42005853 </i>
    <i name="e_wo_entrp">   -676.41239721 </i>
    <i name="e_0_energy">   -676.41622787 </i>
   </energy>
  </scstep>
  <scstep>
   <time name="dav"> 2482.18 2488.49</time>
   <time name="total"> 2515.17 2521.56</time>
   <energy>
    <i name="e_fr_energy">   -676.42005763 </i>
    <i name="e_wo_entrp">   -676.41239626 </i>
    <i name="e_0_energy">   -676.41622694 </i>
   </energy>
  </scstep>
  <scstep>
   <time name="dav"> 2518.60 2524.91</time>
   <time name="total"> 2551.15 2557.54</time>
   <energy>
    <i name="e_fr_energy">   -676.42005731 </i>
    <i name="e_wo_entrp">   -676.41239590 </i>
    <i name="e_0_energy">   -676.41622660 </i>
   </energy>
  </scstep>
  <scstep>
   <time name="dav"> 1769.19 1773.61</time>
   <time name="total"> 1803.39 1807.90</time>
   <energy>
    <i name="e_fr_energy">   -676.42005729 </i>
    <i name="e_wo_entrp">   -676.41239586 </i>
    <i name="e_0_energy">   -676.41622658 </i>
   </energy>
  </scstep>
  <scstep>
   <time name="dav"> 1617.26 1621.41</time>
   <time name="total"> 1651.38 1655.61</time>
   <energy>
    <i name="e_fr_energy">   -676.42005732 </i>
    <i name="e_wo_entrp">   -676.41239589 </i>
    <i name="e_0_energy">   -676.41622660 </i>
   </energy>
  </scstep>
  <scstep>
   <time name="dav"> 1551.38 1555.15</time>
   <time name="total"> 1586.00 1589.86</time>
   <energy>
    <i name="e_fr_energy">   -676.42005731 </i>
    <i name="e_wo_entrp">   -676.41239588 </i>
    <i name="e_0_energy">   -676.41622660 </i>
   </energy>
  </scstep>
  <scstep>
   <time name="dav"> 1533.40 1537.28</time>
   <time name="total"> 1538.40 1542.31</time>
   <energy>
    <i name="alphaZ">   6580.02941619 </i>
    <i name="ewald">-132336.43304761 </i>
    <i name="hartreedc"> -32544.03215646 </i>
    <i name="XCdc">  -1230.85566039 </i>
    <i name="pawpsdc"> 163059.03286640 </i>
    <i name="pawaedc">-156650.96573640 </i>
    <i name="eentropy">     -0.00766143 </i>
    <i name="bandstr">   3270.84112193 </i>
    <i name="atom"> 149175.97080046 </i>
    <i name="e_fr_energy">   -676.42005731 </i>
    <i name="e_wo_entrp">   -676.41239588 </i>
    <i name="e_0_energy">   -676.41622660 </i>
   </energy>
  </scstep>
  <structure>
   <crystal>
    <varray name="basis" >
     <v>      17.67434300       0.00000000       0.02590756 </v>
     <v>       0.00000000      13.77516210       0.00000000 </v>
     <v>      -4.23144168       0.00000000      15.22594286 </v>
    </varray>
    <i name="volume">   3708.52383470 </i>
    <varray name="rec_basis" >
     <v>       0.05655615       0.00000000       0.01571752 </v>
     <v>       0.00000000       0.07259443       0.00000000 </v>
     <v>      -0.00009623       0.00000000       0.06565063 </v>
    </varray>
   </crystal>
   <varray name="positions" >
    <v>       0.08031353       0.12413882       0.07841826 </v>
    <v>       0.33031353       0.12413882       0.07841826 </v>
    <v>       0.58031353       0.12413882       0.07841826 </v>
    <v>       0.83031353       0.12413882       0.07841826 </v>
    <v>       0.08031353       0.62413882       0.07841826 </v>
    <v>       0.33031353       0.62413882       0.07841826 </v>
    <v>       0.58031353       0.62413882       0.07841826 </v>
    <v>       0.83031353       0.62413882       0.07841826 </v>
    <v>       0.08031353       0.12413882       0.57841826 </v>
    <v>       0.33031353       0.12413882       0.57841826 </v>
    <v>       0.58031353       0.12413882       0.57841826 </v>
    <v>       0.83031353       0.12413882       0.57841826 </v>
    <v>       0.08031353       0.62413882       0.57841826 </v>
    <v>       0.33031353       0.62413882       0.57841826 </v>
    <v>       0.58031353       0.62413882       0.57841826 </v>
    <v>       0.83031353       0.62413882       0.57841826 </v>
    <v>       0.04468646       0.37413882       0.17158168 </v>
    <v>       0.29468646       0.37413882       0.17158168 </v>
    <v>       0.54468646       0.37413882       0.17158168 </v>
    <v>       0.79468646       0.37413882       0.17158168 </v>
    <v>       0.04468646       0.87413882       0.17158168 </v>
    <v>       0.29468646       0.87413882       0.17158168 </v>
    <v>       0.54468646       0.87413882       0.17158168 </v>
    <v>       0.79468646       0.87413882       0.17158168 </v>
    <v>       0.04468646       0.37413882       0.67158168 </v>
    <v>       0.29468646       0.37413882       0.67158168 </v>
    <v>       0.54468646       0.37413882       0.67158168 </v>
    <v>       0.79468646       0.37413882       0.67158168 </v>
    <v>       0.04468646       0.87413882       0.67158168 </v>
    <v>       0.29468646       0.87413882       0.67158168 </v>
    <v>       0.54468646       0.87413882       0.67158168 </v>
    <v>       0.79468646       0.87413882       0.67158168 </v>
    <v>       0.16968646       0.37586118       0.42158168 </v>
    <v>       0.41968646       0.37586118       0.42158168 </v>
    <v>       0.66968646       0.37586118       0.42158168 </v>
    <v>       0.91968646       0.37586118       0.42158168 </v>
    <v>       0.16968646       0.87586118       0.42158168 </v>
    <v>       0.41968646       0.87586118       0.42158168 </v>
    <v>       0.66968646       0.87586118       0.42158168 </v>
    <v>       0.91968646       0.87586118       0.42158168 </v>
    <v>       0.16968646       0.37586118       0.92158168 </v>
    <v>       0.41968646       0.37586118       0.92158168 </v>
    <v>       0.66968646       0.37586118       0.92158168 </v>
    <v>       0.91968646       0.37586118       0.92158168 </v>
    <v>       0.16968646       0.87586118       0.92158168 </v>
    <v>       0.41968646       0.87586118       0.92158168 </v>
    <v>       0.66968646       0.87586118       0.92158168 </v>
    <v>       0.91968646       0.87586118       0.92158168 </v>
    <v>       0.20531353       0.12586118       0.32841826 </v>
    <v>       0.45531353       0.12586118       0.32841826 </v>
    <v>       0.70531353       0.12586118       0.32841826 </v>
    <v>       0.95531353       0.12586118       0.32841826 </v>
    <v>       0.20531353       0.62586118       0.32841826 </v>
    <v>       0.45531353       0.62586118       0.32841826 </v>
    <v>       0.70531353       0.62586118       0.32841826 </v>
    <v>       0.95531353       0.62586118       0.32841826 </v>
    <v>       0.20531353       0.12586118       0.82841826 </v>
    <v>       0.45531353       0.12586118       0.82841826 </v>
    <v>       0.70531353       0.12586118       0.82841826 </v>
    <v>       0.95531353       0.12586118       0.82841826 </v>
    <v>       0.20531353       0.62586118       0.82841826 </v>
    <v>       0.45531353       0.62586118       0.82841826 </v>
    <v>       0.70531353       0.62586118       0.82841826 </v>
    <v>       0.95531353       0.62586118       0.82841826 </v>
    <v>       0.19181221       0.01122259       0.17066697 </v>
    <v>       0.44181221       0.01122259       0.17003418 </v>
    <v>       0.69181221       0.01122259       0.17003418 </v>
    <v>       0.94181221       0.01122259       0.17003418 </v>
    <v>       0.19181221       0.51122259       0.17003418 </v>
    <v>       0.44181221       0.51122259       0.17003418 </v>
    <v>       0.69181221       0.51122259       0.17003418 </v>
    <v>       0.94181221       0.51122259       0.17003418 </v>
    <v>       0.19181221       0.01122259       0.67003418 </v>
    <v>       0.44181221       0.01122259       0.67003418 </v>
    <v>       0.69181221       0.01122259       0.67003418 </v>
    <v>       0.94181221       0.01122259       0.67003418 </v>
    <v>       0.19181221       0.51122259       0.67003418 </v>
    <v>       0.44181221       0.51122259       0.67003418 </v>
    <v>       0.69181221       0.51122259       0.67003418 </v>
    <v>       0.94181221       0.51122259       0.67003418 </v>
    <v>       0.18318778       0.26122259       0.07996576 </v>
    <v>       0.43318778       0.26122259       0.07996576 </v>
    <v>       0.68318778       0.26122259       0.07996576 </v>
    <v>       0.93318778       0.26122259       0.07996576 </v>
    <v>       0.18318778       0.76122259       0.07996576 </v>
    <v>       0.43318778       0.76122259       0.07996576 </v>
    <v>       0.68318778       0.76122259       0.07996576 </v>
    <v>       0.93318778       0.76122259       0.07996576 </v>
    <v>       0.18318778       0.26122259       0.57996576 </v>
    <v>       0.43318778       0.26122259       0.57996576 </v>
    <v>       0.68318778       0.26122259       0.57996576 </v>
    <v>       0.93318778       0.26122259       0.57996576 </v>
    <v>       0.18318778       0.76122259       0.57996576 </v>
    <v>       0.43318778       0.76122259       0.57996576 </v>
    <v>       0.68318778       0.76122259       0.57996576 </v>
    <v>       0.93318778       0.76122259       0.57996576 </v>
    <v>       0.05818778       0.48877741       0.32996576 </v>
    <v>       0.30818778       0.48877741       0.32996576 </v>
    <v>       0.55818778       0.48877741       0.32996576 </v>
    <v>       0.80818778       0.48877741       0.32996576 </v>
    <v>       0.05818778       0.98877741       0.32996576 </v>
    <v>       0.30818778       0.98877741       0.32996576 </v>
    <v>       0.55818778       0.98877741       0.32996576 </v>
    <v>       0.80818778       0.98877741       0.32996576 </v>
    <v>       0.05818778       0.48877741       0.82996576 </v>
    <v>       0.30818778       0.48877741       0.82996576 </v>
    <v>       0.55818778       0.48877741       0.82996576 </v>
    <v>       0.80818778       0.48877741       0.82996576 </v>
    <v>       0.05818778       0.98877741       0.82996576 </v>
    <v>       0.30818778       0.98877741       0.82996576 </v>
    <v>       0.55818778       0.98877741       0.82996576 </v>
    <v>       0.80818778       0.98877741       0.82996576 </v>
    <v>       0.06681221       0.23877741       0.42003418 </v>
    <v>       0.31681221       0.23877741       0.42003418 </v>
    <v>       0.56681221       0.23877741       0.42003418 </v>
    <v>       0.81681221       0.23877741       0.42003418 </v>
    <v>       0.06681221       0.73877741       0.42003418 </v>
    <v>       0.31681221       0.73877741       0.42003418 </v>
    <v>       0.56681221       0.73877741       0.42003418 </v>
    <v>       0.81681221       0.73877741       0.42003418 </v>
    <v>       0.06681221       0.23877741       0.92003418 </v>
    <v>       0.31681221       0.23877741       0.92003418 </v>
    <v>       0.56681221       0.23877741       0.92003418 </v>
    <v>       0.81681221       0.23877741       0.92003418 </v>
    <v>       0.06681221       0.73877741       0.92003418 </v>
    <v>       0.31681221       0.73877741       0.92003418 </v>
    <v>       0.56681221       0.73877741       0.92003418 </v>
    <v>       0.81681221       0.73877741       0.92003418 </v>
    <v>       0.05608512       0.18037250       0.23351950 </v>
    <v>       0.30608512       0.18037250       0.23351950 </v>
    <v>       0.55608512       0.18037250       0.23351950 </v>
    <v>       0.80608512       0.18037250       0.23351950 </v>
    <v>       0.05608512       0.68037250       0.23351950 </v>
    <v>       0.30608512       0.68037250       0.23351950 </v>
    <v>       0.55608512       0.68037250       0.23351950 </v>
    <v>       0.80608512       0.68037250       0.23351950 </v>
    <v>       0.05608512       0.18037250       0.73351950 </v>
    <v>       0.30608512       0.18037250       0.73351950 </v>
    <v>       0.55608512       0.18037250       0.73351950 </v>
    <v>       0.80608512       0.18037250       0.73351950 </v>
    <v>       0.05608512       0.68037250       0.73351950 </v>
    <v>       0.30608512       0.68037250       0.73351950 </v>
    <v>       0.55608512       0.68037250       0.73351950 </v>
    <v>       0.80608512       0.68037250       0.73351950 </v>
    <v>       0.06891487       0.43037250       0.01648043 </v>
    <v>       0.31891487       0.43037250       0.01648043 </v>
    <v>       0.56891487       0.43037250       0.01648043 </v>
    <v>       0.81891487       0.43037250       0.01648043 </v>
    <v>       0.06891487       0.93037250       0.01648043 </v>
    <v>       0.31891487       0.93037250       0.01648043 </v>
    <v>       0.56891487       0.93037250       0.01648043 </v>
    <v>       0.81891487       0.93037250       0.01648043 </v>
    <v>       0.06891487       0.43037250       0.51648043 </v>
    <v>       0.31891487       0.43037250       0.51648043 </v>
    <v>       0.56891487       0.43037250       0.51648043 </v>
    <v>       0.81891487       0.43037250       0.51648043 </v>
    <v>       0.06891487       0.93037250       0.51648043 </v>
    <v>       0.31891487       0.93037250       0.51648043 </v>
    <v>       0.56891487       0.93037250       0.51648043 </v>
    <v>       0.81891487       0.93037250       0.51648043 </v>
    <v>       0.19391487       0.31962750       0.26648043 </v>
    <v>       0.44391487       0.31962750       0.26648043 </v>
    <v>       0.69391487       0.31962750       0.26648043 </v>
    <v>       0.94391487       0.31962750       0.26648043 </v>
    <v>       0.19391487       0.81962750       0.26648043 </v>
    <v>       0.44391487       0.81962750       0.26648043 </v>
    <v>       0.69391487       0.81962750       0.26648043 </v>
    <v>       0.94391487       0.81962750       0.26648043 </v>
    <v>       0.19391487       0.31962750       0.76648043 </v>
    <v>       0.44391487       0.31962750       0.76648043 </v>
    <v>       0.69391487       0.31962750       0.76648043 </v>
    <v>       0.94391487       0.31962750       0.76648043 </v>
    <v>       0.19391487       0.81962750       0.76648043 </v>
    <v>       0.44391487       0.81962750       0.76648043 </v>
    <v>       0.69391487       0.81962750       0.76648043 </v>
    <v>       0.94391487       0.81962750       0.76648043 </v>
    <v>       0.18108512       0.06962750       0.48351950 </v>
    <v>       0.43108512       0.06962750       0.48351950 </v>
    <v>       0.68108512       0.06962750       0.48351950 </v>
    <v>       0.93108512       0.06962750       0.48351950 </v>
    <v>       0.18108512       0.56962750       0.48351950 </v>
    <v>       0.43108512       0.56962750       0.48351950 </v>
    <v>       0.68108512       0.56962750       0.48351950 </v>
    <v>       0.93108512       0.56962750       0.48351950 </v>
    <v>       0.18108512       0.06962750       0.98351950 </v>
    <v>       0.43108512       0.06962750       0.98351950 </v>
    <v>       0.68108512       0.06962750       0.98351950 </v>
    <v>       0.93108512       0.06962750       0.98351950 </v>
    <v>       0.18108512       0.56962750       0.98351950 </v>
    <v>       0.43108512       0.56962750       0.98351950 </v>
    <v>       0.68108512       0.56962750       0.98351950 </v>
    <v>       0.93108512       0.56962750       0.98351950 </v>
   </varray>
  </structure>
  <varray name="forces" >
   <v>       0.00304249      -0.00669572      -0.00132357 </v>
   <v>      -0.00504569      -0.00030701      -0.00247038 </v>
   <v>      -0.00365019       0.00040301      -0.00251888 </v>
   <v>      -0.00401140       0.00038322      -0.00235780 </v>
   <v>      -0.00370416       0.00048683      -0.00236803 </v>
   <v>      -0.00348145       0.00000005      -0.00266244 </v>
   <v>      -0.00357320       0.00037165      -0.00242449 </v>
   <v>      -0.00361042       0.00035915      -0.00239168 </v>
   <v>      -0.00356595       0.00039376      -0.00267394 </v>
   <v>      -0.00412375       0.00068069      -0.00299087 </v>
   <v>      -0.00363375       0.00037507      -0.00245022 </v>
   <v>      -0.00361175       0.00039218      -0.00255771 </v>
   <v>      -0.00349931       0.00024261      -0.00259187 </v>
   <v>      -0.00358838       0.00038550      -0.00248465 </v>
   <v>      -0.00359943       0.00038384      -0.00242489 </v>
   <v>      -0.00357013       0.00038458      -0.00245149 </v>
   <v>       0.00356113       0.00063370       0.00263703 </v>
   <v>       0.00344998       0.00020190       0.00259605 </v>
   <v>       0.00355232       0.00030658       0.00244019 </v>
   <v>       0.00357225       0.00038935       0.00247207 </v>
   <v>       0.00413512       0.00084680       0.00160757 </v>
   <v>       0.00247231       0.00123100       0.00026214 </v>
   <v>       0.00372870       0.00038903       0.00242490 </v>
   <v>       0.00369986       0.00032759       0.00244311 </v>
   <v>       0.00361345       0.00035984       0.00238093 </v>
   <v>       0.00362909       0.00042651       0.00235458 </v>
   <v>       0.00360501       0.00035768       0.00239401 </v>
   <v>       0.00358679       0.00038096       0.00238155 </v>
   <v>       0.00372272       0.00029638       0.00237165 </v>
   <v>       0.00364395       0.00032749       0.00232944 </v>
   <v>       0.00363046       0.00035818       0.00238022 </v>
   <v>       0.00362110       0.00037531       0.00238449 </v>
   <v>       0.00409661      -0.00099658       0.00224982 </v>
   <v>       0.00355685      -0.00034555       0.00237465 </v>
   <v>       0.00361457      -0.00040060       0.00240108 </v>
   <v>       0.00365284      -0.00036491       0.00239676 </v>
   <v>       0.00332780      -0.00027761       0.00274747 </v>
   <v>       0.00347568      -0.00021373       0.00253712 </v>
   <v>       0.00359047      -0.00036869       0.00244489 </v>
   <v>       0.00366181      -0.00034853       0.00246366 </v>
   <v>       0.00357644      -0.00029534       0.00239254 </v>
   <v>       0.00365248      -0.00040999       0.00235536 </v>
   <v>       0.00360786      -0.00036088       0.00242006 </v>
   <v>       0.00352622      -0.00029271       0.00239476 </v>
   <v>       0.00307201       0.00060402       0.00379376 </v>
   <v>       0.00353322      -0.00033129       0.00234989 </v>
   <v>       0.00356736      -0.00038097       0.00243935 </v>
   <v>       0.00321411      -0.00061078       0.00244434 </v>
   <v>      -0.00680507       0.00346177       0.00082778 </v>
   <v>      -0.00375199      -0.00036928      -0.00243646 </v>
   <v>      -0.00361583      -0.00039569      -0.00246130 </v>
   <v>      -0.00343281      -0.00044042      -0.00251831 </v>
   <v>      -0.00375315      -0.00017607      -0.00228386 </v>
   <v>      -0.00336347      -0.00069963      -0.00220899 </v>
   <v>      -0.00359144      -0.00036251      -0.00241514 </v>
   <v>      -0.00350736      -0.00025519      -0.00244752 </v>
   <v>      -0.00314594      -0.00029072      -0.00280980 </v>
   <v>      -0.00359722      -0.00045207      -0.00265262 </v>
   <v>      -0.00361664      -0.00037400      -0.00247687 </v>
   <v>      -0.00363170      -0.00034157      -0.00280577 </v>
   <v>      -0.00357757      -0.00023068      -0.00248406 </v>
   <v>      -0.00358450      -0.00037773      -0.00245166 </v>
   <v>      -0.00360986      -0.00037872      -0.00243558 </v>
   <v>      -0.00355470      -0.00036480      -0.00245694 </v>
   <v>      -0.00756823       0.00328266      -0.02295688 </v>
   <v>       0.00013922       0.00042984      -0.00088697 </v>
   <v>       0.00036716       0.00047455      -0.00071724 </v>
   <v>       0.00023580       0.00052695      -0.00086220 </v>
   <v>       0.00036628       0.00046835      -0.00081561 </v>
   <v>       0.00033100       0.00051116      -0.00078245 </v>
   <v>       0.00037862       0.00044783      -0.00075880 </v>
   <v>       0.00041430       0.00043438      -0.00075871 </v>
   <v>       0.00038825       0.00052011      -0.00059820 </v>
   <v>       0.00042205       0.00042698      -0.00056868 </v>
   <v>       0.00038031       0.00044871      -0.00070461 </v>
   <v>       0.00035134       0.00049592      -0.00058800 </v>
   <v>       0.00037088       0.00044279      -0.00073108 </v>
[...]
       <r>     2.7470   632.8565  1183.5823 </r>
       <r>     2.8187   698.1255  1233.6542 </r>
       <r>     2.8904   570.6661  1274.5842 </r>
       <r>     2.9621   472.1809  1308.4506 </r>
       <r>     3.0339   460.9378  1341.5105 </r>
       <r>     3.1056   457.2493  1374.3060 </r>
       <r>     3.1773   425.9435  1404.8560 </r>
       <r>     3.2490   371.9051  1431.5303 </r>
       <r>     3.3207   232.6854  1448.2192 </r>
       <r>     3.3925   188.7114  1461.7542 </r>
       <r>     3.4642   184.3453  1474.9761 </r>
       <r>     3.5359   190.1798  1488.6164 </r>
       <r>     3.6076   204.7677  1503.3030 </r>
       <r>     3.6794   182.7681  1516.4117 </r>
       <r>     3.7511   125.4935  1525.4125 </r>
       <r>     3.8228    94.9596  1532.2234 </r>
       <r>     3.8945    99.0558  1539.3280 </r>
       <r>     3.9663   121.2572  1548.0249 </r>
       <r>     4.0380    99.1856  1555.1389 </r>
       <r>     4.1097    99.2776  1562.2594 </r>
       <r>     4.1814   155.9201  1573.4425 </r>
       <r>     4.2532   101.2805  1580.7066 </r>
       <r>     4.3249    86.4492  1586.9071 </r>
       <r>     4.3966    93.2127  1593.5926 </r>
       <r>     4.4683    91.1595  1600.1308 </r>
       <r>     4.5400   145.6967  1610.5807 </r>
       <r>     4.6118   121.1081  1619.2669 </r>
       <r>     4.6835    91.9752  1625.8637 </r>
       <r>     4.7552   112.3539  1633.9221 </r>
       <r>     4.8269    87.3645  1640.1882 </r>
       <r>     4.8987    98.2474  1647.2348 </r>
       <r>     4.9704   167.7622  1659.2673 </r>
       <r>     5.0421   135.9408  1669.0174 </r>
       <r>     5.1138    69.3995  1673.9949 </r>
       <r>     5.1856    93.9611  1680.7341 </r>
       <r>     5.2573    73.0162  1685.9711 </r>
       <r>     5.3290   120.7045  1694.6284 </r>
       <r>     5.4007   143.4482  1704.9170 </r>
       <r>     5.4724   122.8041  1713.7249 </r>
       <r>     5.5442    74.1774  1719.0451 </r>
       <r>     5.6159    89.4391  1725.4600 </r>
       <r>     5.6876   138.9833  1735.4284 </r>
       <r>     5.7593   157.6695  1746.7369 </r>
       <r>     5.8311   108.8500  1754.5440 </r>
       <r>     5.9028   118.5078  1763.0438 </r>
       <r>     5.9745   119.1540  1771.5899 </r>
       <r>     6.0462    86.5114  1777.7948 </r>
       <r>     6.1180    64.9587  1782.4538 </r>
       <r>     6.1897    42.4806  1785.5007 </r>
       <r>     6.2614    38.3003  1788.2477 </r>
       <r>     6.3331    30.8280  1790.4588 </r>
       <r>     6.4048    14.7301  1791.5153 </r>
       <r>     6.4766     7.8880  1792.0810 </r>
       <r>     6.5483     2.6106  1792.2683 </r>
       <r>     6.6200     4.2926  1792.5761 </r>
       <r>     6.6917     3.0335  1792.7937 </r>
       <r>     6.7635     2.4477  1792.9693 </r>
       <r>     6.8352     1.4608  1793.0740 </r>
       <r>     6.9069    10.4711  1793.8251 </r>
       <r>     6.9786    15.1008  1794.9081 </r>
       <r>     7.0504    10.9965  1795.6968 </r>
       <r>     7.1221     9.7715  1796.3977 </r>
       <r>     7.1938    24.3685  1798.1455 </r>
       <r>     7.2655    31.7112  1800.4199 </r>
       <r>     7.3373    18.5269  1801.7487 </r>
       <r>     7.4090    31.2937  1803.9932 </r>
       <r>     7.4807    34.7520  1806.4857 </r>
       <r>     7.5524    36.8817  1809.1310 </r>
       <r>     7.6241    55.1655  1813.0877 </r>
       <r>     7.6959    67.7346  1817.9458 </r>
       <r>     7.7676    71.4672  1823.0717 </r>
       <r>     7.8393    74.7669  1828.4342 </r>
       <r>     7.9110    62.3160  1832.9037 </r>
       <r>     7.9828    58.0902  1837.0701 </r>
       <r>     8.0545    75.9832  1842.5199 </r>
       <r>     8.1262    81.6419  1848.3755 </r>
       <r>     8.1979    82.8721  1854.3194 </r>
       <r>     8.2697    75.2412  1859.7159 </r>
       <r>     8.3414    65.4628  1864.4111 </r>
       <r>     8.4131    73.5677  1869.6877 </r>
       <r>     8.4848    87.3391  1875.9519 </r>
       <r>     8.5565    79.1371  1881.6279 </r>
       <r>     8.6283    55.7500  1885.6264 </r>
       <r>     8.7000    80.3856  1891.3920 </r>
       <r>     8.7717    84.3849  1897.4443 </r>
       <r>     8.8434    61.1380  1901.8294 </r>
       <r>     8.9152    45.4299  1905.0877 </r>
       <r>     8.9869    41.1480  1908.0390 </r>
       <r>     9.0586    50.0981  1911.6322 </r>
       <r>     9.1303    84.1897  1917.6706 </r>
       <r>     9.2021    67.4475  1922.5081 </r>
       <r>     9.2738    49.4828  1926.0572 </r>
       <r>     9.3455    55.0159  1930.0031 </r>
       <r>     9.4172    68.3866  1934.9080 </r>
       <r>     9.4890    63.6248  1939.4714 </r>
       <r>     9.5607    41.8770  1942.4750 </r>
       <r>     9.6324    67.7671  1947.3354 </r>
       <r>     9.7041   100.1082  1954.5155 </r>
       <r>     9.7758   110.4983  1962.4408 </r>
       <r>     9.8476    89.3007  1968.8458 </r>
       <r>     9.9193    76.4413  1974.3284 </r>
       <r>     9.9910    59.7446  1978.6135 </r>
       <r>    10.0627    80.1398  1984.3614 </r>
       <r>    10.1345    89.5051  1990.7809 </r>
       <r>    10.2062    97.5268  1997.7759 </r>
       <r>    10.2779   108.5839  2005.5639 </r>
       <r>    10.3496   114.0136  2013.7413 </r>
       <r>    10.4214   110.3783  2021.6580 </r>
       <r>    10.4931    94.6263  2028.4449 </r>
       <r>    10.5648    75.9873  2033.8950 </r>
       <r>    10.6365    74.3981  2039.2310 </r>
       <r>    10.7082    71.3987  2044.3520 </r>
       <r>    10.7800    66.7799  2049.1417 </r>
       <r>    10.8517    72.0478  2054.3092 </r>
       <r>    10.9234    73.9709  2059.6146 </r>
       <r>    10.9951    54.5926  2063.5302 </r>
       <r>    11.0669    88.4214  2069.8720 </r>
       <r>    11.1386   108.4443  2077.6500 </r>
       <r>    11.2103    78.8993  2083.3089 </r>
       <r>    11.2820    96.6502  2090.2410 </r>
       <r>    11.3538    80.7693  2096.0341 </r>
       <r>    11.4255   102.8860  2103.4134 </r>
       <r>    11.4972   130.5544  2112.7772 </r>
       <r>    11.5689   118.6085  2121.2841 </r>
       <r>    11.6406   108.7029  2129.0807 </r>
       <r>    11.7124    64.3592  2133.6967 </r>
       <r>    11.7841    88.3070  2140.0304 </r>
       <r>    11.8558    56.8097  2144.1050 </r>
       <r>    11.9275    27.2058  2146.0563 </r>
       <r>    11.9993    15.0642  2147.1367 </r>
       <r>    12.0710    18.4279  2148.4584 </r>
       <r>    12.1427    14.6163  2149.5068 </r>
       <r>    12.2144     6.3323  2149.9609 </r>
       <r>    12.2862     0.5428  2149.9999 </r>
       <r>    12.3579     0.0019  2150.0000 </r>
       <r>    12.4296     0.0000  2150.0000 </r>
       <r>    12.5013     0.0000  2150.0000 </r>
       <r>    12.5731     0.0000  2150.0000 </r>
       <r>    12.6448     0.0000  2150.0000 </r>
       <r>    12.7165     0.0000  2150.0000 </r>
       <r>    12.7882     0.0000  2150.0000 </r>
       <r>    12.8599     0.0000  2150.0000 </r>
       <r>    12.9317     0.0000  2150.0000 </r>
       <r>    13.0034     0.0000  2150.0000 </r>
       <r>    13.0751     0.0000  2150.0000 </r>
       <r>    13.1468     0.0000  2150.0000 </r>
      </set>
     </set>
    </array>
   </total>
  </dos>
 </calculation>
 <structure name="finalpos" >
  <crystal>
   <varray name="basis" >
    <v>      17.67434300       0.00000000       0.02590756 </v>
    <v>       0.00000000      13.77516210       0.00000000 </v>
    <v>      -4.23144168       0.00000000      15.22594286 </v>
   </varray>
   <i name="volume">   3708.52383470 </i>
   <varray name="rec_basis" >
    <v>       0.05655615       0.00000000       0.01571752 </v>
    <v>       0.00000000       0.07259443       0.00000000 </v>
    <v>      -0.00009623       0.00000000       0.06565063 </v>
   </varray>
  </crystal>
  <varray name="positions" >
   <v>       0.08031353       0.12413882       0.07841826 </v>
   <v>       0.33031353       0.12413882       0.07841826 </v>
   <v>       0.58031353       0.12413882       0.07841826 </v>
   <v>       0.83031353       0.12413882       0.07841826 </v>
   <v>       0.08031353       0.62413882       0.07841826 </v>
   <v>       0.33031353       0.62413882       0.07841826 </v>
   <v>       0.58031353       0.62413882       0.07841826 </v>
   <v>       0.83031353       0.62413882       0.07841826 </v>
   <v>       0.08031353       0.12413882       0.57841826 </v>
   <v>       0.33031353       0.12413882       0.57841826 </v>
   <v>       0.58031353       0.12413882       0.57841826 </v>
   <v>       0.83031353       0.12413882       0.57841826 </v>
   <v>       0.08031353       0.62413882       0.57841826 </v>
   <v>       0.33031353       0.62413882       0.57841826 </v>
   <v>       0.58031353       0.62413882       0.57841826 </v>
   <v>       0.83031353       0.62413882       0.57841826 </v>
   <v>       0.04468646       0.37413882       0.17158168 </v>
   <v>       0.29468646       0.37413882       0.17158168 </v>
   <v>       0.54468646       0.37413882       0.17158168 </v>
   <v>       0.79468646       0.37413882       0.17158168 </v>
   <v>       0.04468646       0.87413882       0.17158168 </v>
   <v>       0.29468646       0.87413882       0.17158168 </v>
   <v>       0.54468646       0.87413882       0.17158168 </v>
   <v>       0.79468646       0.87413882       0.17158168 </v>
   <v>       0.04468646       0.37413882       0.67158168 </v>
   <v>       0.29468646       0.37413882       0.67158168 </v>
   <v>       0.54468646       0.37413882       0.67158168 </v>
   <v>       0.79468646       0.37413882       0.67158168 </v>
   <v>       0.04468646       0.87413882       0.67158168 </v>
   <v>       0.29468646       0.87413882       0.67158168 </v>
   <v>       0.54468646       0.87413882       0.67158168 </v>
   <v>       0.79468646       0.87413882       0.67158168 </v>
   <v>       0.16968646       0.37586118       0.42158168 </v>
   <v>       0.41968646       0.37586118       0.42158168 </v>
   <v>       0.66968646       0.37586118       0.42158168 </v>
   <v>       0.91968646       0.37586118       0.42158168 </v>
   <v>       0.16968646       0.87586118       0.42158168 </v>
   <v>       0.41968646       0.87586118       0.42158168 </v>
   <v>       0.66968646       0.87586118       0.42158168 </v>
   <v>       0.91968646       0.87586118       0.42158168 </v>
   <v>       0.16968646       0.37586118       0.92158168 </v>
   <v>       0.41968646       0.37586118       0.92158168 </v>
   <v>       0.66968646       0.37586118       0.92158168 </v>
   <v>       0.91968646       0.37586118       0.92158168 </v>
   <v>       0.16968646       0.87586118       0.92158168 </v>
   <v>       0.41968646       0.87586118       0.92158168 </v>
   <v>       0.66968646       0.87586118       0.92158168 </v>
   <v>       0.91968646       0.87586118       0.92158168 </v>
   <v>       0.20531353       0.12586118       0.32841826 </v>
   <v>       0.45531353       0.12586118       0.32841826 </v>
   <v>       0.70531353       0.12586118       0.32841826 </v>
   <v>       0.95531353       0.12586118       0.32841826 </v>
   <v>       0.20531353       0.62586118       0.32841826 </v>
   <v>       0.45531353       0.62586118       0.32841826 </v>
   <v>       0.70531353       0.62586118       0.32841826 </v>
   <v>       0.95531353       0.62586118       0.32841826 </v>
   <v>       0.20531353       0.12586118       0.82841826 </v>
   <v>       0.45531353       0.12586118       0.82841826 </v>
   <v>       0.70531353       0.12586118       0.82841826 </v>
   <v>       0.95531353       0.12586118       0.82841826 </v>
   <v>       0.20531353       0.62586118       0.82841826 </v>
   <v>       0.45531353       0.62586118       0.82841826 </v>
   <v>       0.70531353       0.62586118       0.82841826 </v>
   <v>       0.95531353       0.62586118       0.82841826 </v>
   <v>       0.19181221       0.01122259       0.17066697 </v>
   <v>       0.44181221       0.01122259       0.17003418 </v>
   <v>       0.69181221       0.01122259       0.17003418 </v>
   <v>       0.94181221       0.01122259       0.17003418 </v>
   <v>       0.19181221       0.51122259       0.17003418 </v>
   <v>       0.44181221       0.51122259       0.17003418 </v>
   <v>       0.69181221       0.51122259       0.17003418 </v>
   <v>       0.94181221       0.51122259       0.17003418 </v>
   <v>       0.19181221       0.01122259       0.67003418 </v>
   <v>       0.44181221       0.01122259       0.67003418 </v>
   <v>       0.69181221       0.01122259       0.67003418 </v>
   <v>       0.94181221       0.01122259       0.67003418 </v>
   <v>       0.19181221       0.51122259       0.67003418 </v>
   <v>       0.44181221       0.51122259       0.67003418 </v>
   <v>       0.69181221       0.51122259       0.67003418 </v>
   <v>       0.94181221       0.51122259       0.67003418 </v>
   <v>       0.18318778       0.26122259       0.07996576 </v>
   <v>       0.43318778       0.26122259       0.07996576 </v>
   <v>       0.68318778       0.26122259       0.07996576 </v>
   <v>       0.93318778       0.26122259       0.07996576 </v>
   <v>       0.18318778       0.76122259       0.07996576 </v>
   <v>       0.43318778       0.76122259       0.07996576 </v>
   <v>       0.68318778       0.76122259       0.07996576 </v>
   <v>       0.93318778       0.76122259       0.07996576 </v>
   <v>       0.18318778       0.26122259       0.57996576 </v>
   <v>       0.43318778       0.26122259       0.57996576 </v>
   <v>       0.68318778       0.26122259       0.57996576 </v>
   <v>       0.93318778       0.26122259       0.57996576 </v>
   <v>       0.18318778       0.76122259       0.57996576 </v>
   <v>       0.43318778       0.76122259       0.57996576 </v>
   <v>       0.68318778       0.76122259       0.57996576 </v>
   <v>       0.93318778       0.76122259       0.57996576 </v>
   <v>       0.05818778       0.48877741       0.32996576 </v>
   <v>       0.30818778       0.48877741       0.32996576 </v>
   <v>       0.55818778       0.48877741       0.32996576 </v>
   <v>       0.80818778       0.48877741       0.32996576 </v>
   <v>       0.05818778       0.98877741       0.32996576 </v>
   <v>       0.30818778       0.98877741       0.32996576 </v>
   <v>       0.55818778       0.98877741       0.32996576 </v>
   <v>       0.80818778       0.98877741       0.32996576 </v>
   <v>       0.05818778       0.48877741       0.82996576 </v>
   <v>       0.30818778       0.48877741       0.82996576 </v>
   <v>       0.55818778       0.48877741       0.82996576 </v>
   <v>       0.80818778       0.48877741       0.82996576 </v>
   <v>       0.05818778       0.98877741       0.82996576 </v>
   <v>       0.30818778       0.98877741       0.82996576 </v>
   <v>       0.55818778       0.98877741       0.82996576 </v>
   <v>       0.80818778       0.98877741       0.82996576 </v>
   <v>       0.06681221       0.23877741       0.42003418 </v>
   <v>       0.31681221       0.23877741       0.42003418 </v>
   <v>       0.56681221       0.23877741       0.42003418 </v>
   <v>       0.81681221       0.23877741       0.42003418 </v>
   <v>       0.06681221       0.73877741       0.42003418 </v>
   <v>       0.31681221       0.73877741       0.42003418 </v>
   <v>       0.56681221       0.73877741       0.42003418 </v>
   <v>       0.81681221       0.73877741       0.42003418 </v>
   <v>       0.06681221       0.23877741       0.92003418 </v>
   <v>       0.31681221       0.23877741       0.92003418 </v>
   <v>       0.56681221       0.23877741       0.92003418 </v>
   <v>       0.81681221       0.23877741       0.92003418 </v>
   <v>       0.06681221       0.73877741       0.92003418 </v>
   <v>       0.31681221       0.73877741       0.92003418 </v>
   <v>       0.56681221       0.73877741       0.92003418 </v>
   <v>       0.81681221       0.73877741       0.92003418 </v>
   <v>       0.05608512       0.18037250       0.23351950 </v>
   <v>       0.30608512       0.18037250       0.23351950 </v>
   <v>       0.55608512       0.18037250       0.23351950 </v>
   <v>       0.80608512       0.18037250       0.23351950 </v>
   <v>       0.05608512       0.68037250       0.23351950 </v>
   <v>       0.30608512       0.68037250       0.23351950 </v>
   <v>       0.55608512       0.68037250       0.23351950 </v>
   <v>       0.80608512       0.68037250       0.23351950 </v>
   <v>       0.05608512       0.18037250       0.73351950 </v>
   <v>       0.30608512       0.18037250       0.73351950 </v>
   <v>       0.55608512       0.18037250       0.73351950 </v>
   <v>       0.80608512       0.18037250       0.73351950 </v>
   <v>       0.05608512       0.68037250       0.73351950 </v>
   <v>       0.30608512       0.68037250       0.73351950 </v>
   <v>       0.55608512       0.68037250       0.73351950 </v>
   <v>       0.80608512       0.68037250       0.73351950 </v>
   <v>       0.06891487       0.43037250       0.01648043 </v>
   <v>       0.31891487       0.43037250       0.01648043 </v>
   <v>       0.56891487       0.43037250       0.01648043 </v>
   <v>       0.81891487       0.43037250       0.01648043 </v>
   <v>       0.06891487       0.93037250       0.01648043 </v>
   <v>       0.31891487       0.93037250       0.01648043 </v>
   <v>       0.56891487       0.93037250       0.01648043 </v>
   <v>       0.81891487       0.93037250       0.01648043 </v>
   <v>       0.06891487       0.43037250       0.51648043 </v>
   <v>       0.31891487       0.43037250       0.51648043 </v>
   <v>       0.56891487       0.43037250       0.51648043 </v>
   <v>       0.81891487       0.43037250       0.51648043 </v>
   <v>       0.06891487       0.93037250       0.51648043 </v>
   <v>       0.31891487       0.93037250       0.51648043 </v>
   <v>       0.56891487       0.93037250       0.51648043 </v>
   <v>       0.81891487       0.93037250       0.51648043 </v>
   <v>       0.19391487       0.31962750       0.26648043 </v>
   <v>       0.44391487       0.31962750       0.26648043 </v>
   <v>       0.69391487       0.31962750       0.26648043 </v>
   <v>       0.94391487       0.31962750       0.26648043 </v>
   <v>       0.19391487       0.81962750       0.26648043 </v>
   <v>       0.44391487       0.81962750       0.26648043 </v>
   <v>       0.69391487       0.81962750       0.26648043 </v>
   <v>       0.94391487       0.81962750       0.26648043 </v>
   <v>       0.19391487       0.31962750       0.76648043 </v>
   <v>       0.44391487       0.31962750       0.76648043 </v>
   <v>       0.69391487       0.31962750       0.76648043 </v>
   <v>       0.94391487       0.31962750       0.76648043 </v>
   <v>       0.19391487       0.81962750       0.76648043 </v>
   <v>       0.44391487       0.81962750       0.76648043 </v>
   <v>       0.69391487       0.81962750       0.76648043 </v>
   <v>       0.94391487       0.81962750       0.76648043 </v>
   <v>       0.18108512       0.06962750       0.48351950 </v>
   <v>       0.43108512       0.06962750       0.48351950 </v>
   <v>       0.68108512       0.06962750       0.48351950 </v>
   <v>       0.93108512       0.06962750       0.48351950 </v>
   <v>       0.18108512       0.56962750       0.48351950 </v>
   <v>       0.43108512       0.56962750       0.48351950 </v>
   <v>       0.68108512       0.56962750       0.48351950 </v>
   <v>       0.93108512       0.56962750       0.48351950 </v>
   <v>       0.18108512       0.06962750       0.98351950 </v>
   <v>       0.43108512       0.06962750       0.98351950 </v>
   <v>       0.68108512       0.06962750       0.98351950 </v>
   <v>       0.93108512       0.06962750       0.98351950 </v>
   <v>       0.18108512       0.56962750       0.98351950 </v>
   <v>       0.43108512       0.56962750       0.98351950 </v>
   <v>       0.68108512       0.56962750       0.98351950 </v>
   <v>       0.93108512       0.56962750       0.98351950 </v>
  </varray>
 </structure>
</modeling>
