 144 144   0   0
  0.1948916E+02  0.1401040E-08  0.1376691E-08  0.1455019E-08  0.5000000E-15
  1.000000000000000E-004
  CAR 
 unknown system                          
     13.05843100     -8.44113413  301      6.26446316      1.00000000
     -8.441  0.0000E+00  0.0000E+00
     -8.369  0.0000E+00  0.0000E+00
     -8.298  0.0000E+00  0.0000E+00
     -8.226  0.0000E+00  0.0000E+00
     -8.154  0.0000E+00  0.0000E+00
     -8.083  0.0000E+00  0.0000E+00
     -8.011  0.0000E+00  0.0000E+00
     -7.939  0.0000E+00  0.0000E+00
     -7.868  0.0000E+00  0.0000E+00
     -7.796  0.0000E+00  0.0000E+00
     -7.724  0.2957E-12  0.2119E-13
     -7.653  0.1587E-06  0.1137E-07
     -7.581  0.1589E-02  0.1139E-03
     -7.509  0.3519E+00  0.2533E-01
     -7.438  0.4313E+01  0.3344E+00
     -7.366  0.1911E+02  0.1704E+01
     -7.294  0.3786E+02  0.4417E+01
     -7.223  0.3949E+02  0.7247E+01
     -7.151  0.6434E+02  0.1186E+02
     -7.079  0.1004E+03  0.1906E+02
     -7.008  0.1264E+03  0.2812E+02
     -6.936  0.2083E+03  0.4304E+02
     -6.864  0.2226E+03  0.5900E+02
     -6.793  0.2575E+03  0.7745E+02
     -6.721  0.2072E+03  0.9230E+02
     -6.650  0.4946E+02  0.9584E+02
     -6.578  0.2219E+01  0.9600E+02
     -6.506  0.7980E-02  0.9600E+02
     -6.435  0.1004E-05  0.9600E+02
     -6.363  0.2960E-11  0.9600E+02
     -6.291  0.0000E+00  0.9600E+02
     -6.220  0.0000E+00  0.9600E+02
     -6.148  0.0000E+00  0.9600E+02
     -6.076  0.0000E+00  0.9600E+02
     -6.005  0.0000E+00  0.9600E+02
     -5.933  0.0000E+00  0.9600E+02
     -5.861  0.0000E+00  0.9600E+02
     -5.790  0.0000E+00  0.9600E+02
     -5.718  0.0000E+00  0.9600E+02
     -5.646  0.0000E+00  0.9600E+02
     -5.575  0.0000E+00  0.9600E+02
     -5.503  0.0000E+00  0.9600E+02
     -5.431  0.0000E+00  0.9600E+02
     -5.360  0.0000E+00  0.9600E+02
     -5.288  0.0000E+00  0.9600E+02
     -5.216  0.0000E+00  0.9600E+02
     -5.145  0.0000E+00  0.9600E+02
     -5.073  0.0000E+00  0.9600E+02
     -5.001  0.0000E+00  0.9600E+02
     -4.930  0.0000E+00  0.9600E+02
     -4.858  0.0000E+00  0.9600E+02
     -4.786  0.0000E+00  0.9600E+02
     -4.715  0.0000E+00  0.9600E+02
     -4.643  0.0000E+00  0.9600E+02
     -4.571  0.0000E+00  0.9600E+02
     -4.500  0.0000E+00  0.9600E+02
     -4.428  0.0000E+00  0.9600E+02
     -4.356  0.0000E+00  0.9600E+02
     -4.285  0.0000E+00  0.9600E+02
     -4.213  0.0000E+00  0.9600E+02
     -4.141  0.0000E+00  0.9600E+02
     -4.070  0.0000E+00  0.9600E+02
     -3.998  0.0000E+00  0.9600E+02
     -3.926  0.0000E+00  0.9600E+02
     -3.855  0.0000E+00  0.9600E+02
     -3.783  0.0000E+00  0.9600E+02
     -3.711  0.0000E+00  0.9600E+02
     -3.640  0.0000E+00  0.9600E+02
     -3.568  0.0000E+00  0.9600E+02
     -3.496  0.0000E+00  0.9600E+02
     -3.425  0.0000E+00  0.9600E+02
     -3.353  0.0000E+00  0.9600E+02
     -3.281  0.0000E+00  0.9600E+02
     -3.210  0.0000E+00  0.9600E+02
     -3.138  0.0000E+00  0.9600E+02
     -3.066  0.0000E+00  0.9600E+02
     -2.995  0.0000E+00  0.9600E+02
     -2.923  0.0000E+00  0.9600E+02
     -2.851  0.0000E+00  0.9600E+02
     -2.780  0.0000E+00  0.9600E+02
     -2.708  0.0000E+00  0.9600E+02
     -2.636  0.0000E+00  0.9600E+02
     -2.565  0.0000E+00  0.9600E+02
     -2.493  0.0000E+00  0.9600E+02
     -2.421  0.0000E+00  0.9600E+02
     -2.350  0.0000E+00  0.9600E+02
     -2.278  0.0000E+00  0.9600E+02
     -2.206  0.0000E+00  0.9600E+02
     -2.135  0.0000E+00  0.9600E+02
     -2.063  0.0000E+00  0.9600E+02
     -1.991  0.0000E+00  0.9600E+02
     -1.920  0.0000E+00  0.9600E+02
     -1.848  0.0000E+00  0.9600E+02
     -1.776  0.0000E+00  0.9600E+02
     -1.705  0.0000E+00  0.9600E+02
     -1.633  0.0000E+00  0.9600E+02
     -1.561  0.0000E+00  0.9600E+02
     -1.490  0.0000E+00  0.9600E+02
     -1.418  0.0000E+00  0.9600E+02
     -1.346  0.0000E+00  0.9600E+02
     -1.275  0.0000E+00  0.9600E+02
     -1.203  0.0000E+00  0.9600E+02
     -1.131  0.0000E+00  0.9600E+02
     -1.060  0.0000E+00  0.9600E+02
     -0.988  0.0000E+00  0.9600E+02
     -0.916  0.0000E+00  0.9600E+02
     -0.845  0.0000E+00  0.9600E+02
     -0.773  0.0000E+00  0.9600E+02
     -0.701  0.0000E+00  0.9600E+02
     -0.630  0.1936E-14  0.9600E+02
     -0.558  0.3592E-08  0.9600E+02
     -0.486  0.1274E-03  0.9600E+02
     -0.415  0.9143E-01  0.9601E+02
     -0.343  0.1775E+01  0.9613E+02
     -0.271  0.1867E+01  0.9627E+02
     -0.200  0.8396E+01  0.9687E+02
     -0.128  0.1538E+02  0.9797E+02
     -0.056  0.2432E+02  0.9971E+02
      0.015  0.5146E+02  0.1034E+03
      0.087  0.1030E+03  0.1108E+03
      0.159  0.1889E+03  0.1243E+03
      0.230  0.2061E+03  0.1391E+03
      0.302  0.2742E+03  0.1587E+03
      0.374  0.1928E+03  0.1726E+03
      0.445  0.1247E+03  0.1815E+03
      0.517  0.1409E+03  0.1916E+03
      0.589  0.1240E+03  0.2005E+03
      0.660  0.1672E+03  0.2125E+03
      0.732  0.2454E+03  0.2300E+03
      0.804  0.2292E+03  0.2465E+03
      0.875  0.2922E+03  0.2674E+03
      0.947  0.2841E+03  0.2878E+03
      1.019  0.1458E+03  0.2982E+03
      1.090  0.1847E+03  0.3115E+03
      1.162  0.2269E+03  0.3277E+03
      1.234  0.2299E+03  0.3442E+03
      1.305  0.2982E+03  0.3656E+03
      1.377  0.3074E+03  0.3876E+03
      1.449  0.3917E+03  0.4157E+03
      1.520  0.3551E+03  0.4411E+03
      1.592  0.3732E+03  0.4679E+03
      1.664  0.3654E+03  0.4940E+03
      1.735  0.3919E+03  0.5221E+03
      1.807  0.3720E+03  0.5488E+03
      1.879  0.3582E+03  0.5744E+03
      1.950  0.3894E+03  0.6024E+03
      2.022  0.4146E+03  0.6321E+03
      2.094  0.3778E+03  0.6591E+03
      2.165  0.3613E+03  0.6850E+03
      2.237  0.3752E+03  0.7119E+03
      2.309  0.3969E+03  0.7404E+03
      2.380  0.3376E+03  0.7646E+03
      2.452  0.2961E+03  0.7858E+03
      2.524  0.3397E+03  0.8101E+03
      2.595  0.3558E+03  0.8356E+03
      2.667  0.4089E+03  0.8649E+03
      2.739  0.3734E+03  0.8917E+03
      2.810  0.3807E+03  0.9190E+03
      2.882  0.4325E+03  0.9500E+03
      2.954  0.5003E+03  0.9858E+03
      3.025  0.4955E+03  0.1021E+04
      3.097  0.3665E+03  0.1048E+04
      3.169  0.2324E+03  0.1064E+04
      3.240  0.2050E+03  0.1079E+04
      3.312  0.1701E+03  0.1091E+04
      3.384  0.1373E+03  0.1101E+04
      3.455  0.1201E+03  0.1110E+04
      3.527  0.1581E+03  0.1121E+04
      3.599  0.1623E+03  0.1133E+04
      3.670  0.1003E+03  0.1140E+04
      3.742  0.9675E+02  0.1147E+04
      3.814  0.6436E+02  0.1151E+04
      3.885  0.7287E+02  0.1156E+04
      3.957  0.7286E+02  0.1162E+04
      4.029  0.6593E+02  0.1166E+04
      4.100  0.9214E+02  0.1173E+04
      4.172  0.1046E+03  0.1181E+04
      4.244  0.1133E+03  0.1189E+04
      4.315  0.7466E+02  0.1194E+04
      4.387  0.7304E+02  0.1199E+04
      4.459  0.6547E+02  0.1204E+04
      4.530  0.9262E+02  0.1211E+04
      4.602  0.9326E+02  0.1217E+04
      4.674  0.1028E+03  0.1225E+04
      4.745  0.1409E+03  0.1235E+04
      4.817  0.1366E+03  0.1244E+04
      4.889  0.7125E+02  0.1250E+04
      4.960  0.5372E+02  0.1253E+04
      5.032  0.5515E+02  0.1257E+04
      5.104  0.8849E+02  0.1264E+04
      5.175  0.1449E+03  0.1274E+04
      5.247  0.1070E+03  0.1282E+04
      5.319  0.6258E+02  0.1286E+04
      5.390  0.6020E+02  0.1291E+04
      5.462  0.6875E+02  0.1296E+04
      5.534  0.7288E+02  0.1301E+04
      5.605  0.7671E+02  0.1306E+04
      5.677  0.1121E+03  0.1314E+04
      5.749  0.1308E+03  0.1324E+04
      5.820  0.7194E+02  0.1329E+04
      5.892  0.6455E+02  0.1333E+04
      5.964  0.5778E+02  0.1338E+04
      6.035  0.2998E+02  0.1340E+04
      6.107  0.1879E+02  0.1341E+04
      6.179  0.2159E+02  0.1343E+04
      6.250  0.1671E+02  0.1344E+04
      6.322  0.8704E+01  0.1344E+04
      6.394  0.8692E+00  0.1344E+04
      6.465  0.1326E+00  0.1345E+04
      6.537  0.1946E+01  0.1345E+04
      6.609  0.1754E+01  0.1345E+04
      6.680  0.5649E+01  0.1345E+04
      6.752  0.2340E+02  0.1347E+04
      6.824  0.2571E+02  0.1349E+04
      6.895  0.1087E+02  0.1349E+04
      6.967  0.6329E+01  0.1350E+04
      7.039  0.8943E+01  0.1351E+04
      7.110  0.4744E+01  0.1351E+04
      7.182  0.2201E+02  0.1352E+04
      7.254  0.2402E+02  0.1354E+04
      7.325  0.2788E+02  0.1356E+04
      7.397  0.3184E+02  0.1358E+04
      7.469  0.3014E+02  0.1361E+04
      7.540  0.6227E+02  0.1365E+04
      7.612  0.7005E+02  0.1370E+04
      7.684  0.2652E+02  0.1372E+04
      7.755  0.5586E+02  0.1376E+04
      7.827  0.6969E+02  0.1381E+04
      7.899  0.7316E+02  0.1386E+04
      7.970  0.7585E+02  0.1392E+04
      8.042  0.6485E+02  0.1396E+04
      8.114  0.3399E+02  0.1399E+04
      8.185  0.1823E+02  0.1400E+04
      8.257  0.8098E+01  0.1401E+04
      8.329  0.1114E+02  0.1401E+04
      8.400  0.5153E+02  0.1405E+04
      8.472  0.3315E+02  0.1408E+04
      8.544  0.3343E+02  0.1410E+04
      8.615  0.9679E+02  0.1417E+04
      8.687  0.1031E+03  0.1424E+04
      8.759  0.5815E+02  0.1428E+04
      8.830  0.5077E+02  0.1432E+04
      8.902  0.3349E+02  0.1434E+04
      8.974  0.4588E+02  0.1438E+04
      9.045  0.2971E+02  0.1440E+04
      9.117  0.2199E+02  0.1441E+04
      9.189  0.1011E+02  0.1442E+04
      9.260  0.1750E+02  0.1443E+04
      9.332  0.5439E+02  0.1447E+04
      9.404  0.4933E+02  0.1451E+04
      9.475  0.5421E+02  0.1455E+04
      9.547  0.3794E+02  0.1457E+04
      9.619  0.5121E+02  0.1461E+04
      9.690  0.5016E+02  0.1465E+04
      9.762  0.4740E+02  0.1468E+04
      9.833  0.5342E+02  0.1472E+04
      9.905  0.7593E+02  0.1477E+04
      9.977  0.5652E+02  0.1481E+04
     10.048  0.1099E+03  0.1489E+04
     10.120  0.1173E+03  0.1498E+04
     10.192  0.4088E+02  0.1501E+04
     10.263  0.2926E+02  0.1503E+04
     10.335  0.4890E+02  0.1506E+04
     10.407  0.5765E+02  0.1510E+04
     10.478  0.9056E+02  0.1517E+04
     10.550  0.1110E+03  0.1525E+04
     10.622  0.1111E+03  0.1533E+04
     10.693  0.9327E+02  0.1540E+04
     10.765  0.7912E+02  0.1545E+04
     10.837  0.1078E+03  0.1553E+04
     10.908  0.8847E+02  0.1559E+04
     10.980  0.6446E+02  0.1564E+04
     11.052  0.3412E+02  0.1566E+04
     11.123  0.5671E+02  0.1570E+04
     11.195  0.5075E+02  0.1574E+04
     11.267  0.4578E+02  0.1577E+04
     11.338  0.8340E+02  0.1583E+04
     11.410  0.5238E+02  0.1587E+04
     11.482  0.5607E+02  0.1591E+04
     11.553  0.8893E+02  0.1597E+04
     11.625  0.6720E+02  0.1602E+04
     11.697  0.4501E+02  0.1605E+04
     11.768  0.1149E+02  0.1606E+04
     11.840  0.1509E+02  0.1607E+04
     11.912  0.3663E+02  0.1610E+04
     11.983  0.2016E+02  0.1611E+04
     12.055  0.2902E+01  0.1612E+04
     12.127  0.4494E+01  0.1612E+04
     12.198  0.5428E+00  0.1612E+04
     12.270  0.2139E-02  0.1612E+04
     12.342  0.1904E-06  0.1612E+04
     12.413  0.3292E-12  0.1612E+04
     12.485  0.0000E+00  0.1612E+04
     12.557  0.0000E+00  0.1612E+04
     12.628  0.0000E+00  0.1612E+04
     12.700  0.0000E+00  0.1612E+04
     12.772  0.0000E+00  0.1612E+04
     12.843  0.0000E+00  0.1612E+04
     12.915  0.0000E+00  0.1612E+04
     12.987  0.0000E+00  0.1612E+04
     13.058  0.0000E+00  0.1612E+04
