192  
18   

1    
  0.0099999892567478   0.0000000000000000   0.0000146582716918
  -0.0601317000   -0.0014568500   -0.0018772800
   0.0011627400    0.0001111000   -0.0022238900
  -0.0022389000    0.0003850900   -0.0023696100
   0.0010915700    0.0004059800   -0.0026641900
  -0.0039749000    0.0003092800   -0.0020858000
  -0.0034825400    0.0005036500   -0.0024529800
  -0.0035381300    0.0003845200   -0.0024261100
  -0.0034830800    0.0004756700   -0.0023838400
  -0.0038390300    0.0004162700   -0.0024534900
  -0.0033035200    0.0002951200   -0.0022566100
  -0.0034661500    0.0003731100   -0.0023578800
  -0.0033042200    0.0002932400   -0.0020933100
  -0.0037274100    0.0003601500   -0.0024986200
  -0.0035851400    0.0003587700   -0.0024514700
  -0.0035406300    0.0003762900   -0.0024202400
  -0.0035851500    0.0003628000   -0.0024647800
   0.0034588800   -0.0029045300    0.0010396000
   0.0037413100    0.0012023700    0.0019788300
   0.0037259400    0.0003344800    0.0023648300
   0.0037698000    0.0001998900    0.0022016600
   0.0034646700    0.0026925100    0.0011170300
   0.0037386300   -0.0003426700    0.0031904100
   0.0037265600    0.0003412300    0.0024370500
   0.0037709600    0.0005716800    0.0023737400
   0.0035299100    0.0003201400    0.0024082800
   0.0036172300    0.0003187100    0.0022443500
   0.0036820300    0.0003605900    0.0024340000
   0.0036835700    0.0003467300    0.0025264600
   0.0035303300    0.0004372000    0.0023602400
   0.0036177800    0.0003746700    0.0023304300
   0.0036819900    0.0003575000    0.0024389400
   0.0036836100    0.0003206700    0.0024534700
   0.0034217200   -0.0001850200    0.0022409200
   0.0036222800   -0.0003875800    0.0023903000
   0.0037031000   -0.0003742500    0.0024464100
   0.0035741100   -0.0003995000    0.0023343900
   0.0034257900   -0.0005664800    0.0024548700
   0.0035880900   -0.0003159300    0.0024959200
   0.0036827500   -0.0003444600    0.0024687000
   0.0036537500   -0.0003661200    0.0023522100
   0.0041683100    0.0012871700    0.0018346600
   0.0037285300   -0.0002256800    0.0023807800
   0.0036360700   -0.0003054500    0.0024633800
   0.0036728200   -0.0006317300    0.0028336500
   0.0047870400   -0.0020067000    0.0011429100
   0.0037478500   -0.0003796300    0.0023488400
   0.0037200000   -0.0003478900    0.0023950400
   0.0044892600    0.0012334000    0.0033163800
  -0.0048884100    0.0001447800   -0.0000296200
  -0.0035866500   -0.0003969500   -0.0022091300
  -0.0035019800   -0.0003531000   -0.0023166500
  -0.0032331900   -0.0004016900   -0.0032852400
  -0.0037023600   -0.0003394300   -0.0024539300
  -0.0035580100   -0.0004677500   -0.0023545800
  -0.0034972700   -0.0003904200   -0.0024470600
  -0.0034714200   -0.0002658000   -0.0027568400
  -0.0032201600   -0.0009252600   -0.0025163100
  -0.0035003500   -0.0003984900   -0.0022510300
  -0.0035848900   -0.0003892100   -0.0021678500
  -0.0048641200   -0.0005448500    0.0007734500
  -0.0034717500   -0.0004601300   -0.0027238600
  -0.0034968800   -0.0003812400   -0.0024690800
  -0.0035583500   -0.0003496800   -0.0024297900
  -0.0037026300   -0.0003836300   -0.0023997800
   0.0121590400   -0.0116102000    0.0095980800
   0.0003897100    0.0009529300   -0.0011787000
   0.0001538000    0.0004897700   -0.0008679900
   0.0012047100    0.0011531800   -0.0020259300
   0.0006283200    0.0004921500   -0.0007896100
   0.0003786200    0.0004708100   -0.0007628700
   0.0003077400    0.0004897200   -0.0007442700
   0.0000570800    0.0003838300   -0.0007192100
   0.0003955000    0.0004256900   -0.0007129100
   0.0003034400    0.0004829700   -0.0007848900
   0.0003269100    0.0004480300   -0.0008018600
   0.0004089300    0.0002110600   -0.0012879800
   0.0003867500    0.0004973700   -0.0006462400
   0.0003360800    0.0004600700   -0.0007333400
   0.0003178200    0.0004532600   -0.0007685900
   0.0003789100    0.0004482400   -0.0007407600
   0.0134536200    0.0171328700    0.0034205100
  -0.0005914300   -0.0000615800    0.0008253100
  -0.0007063800    0.0004661200    0.0007646100
   0.0009062400   -0.0013591600    0.0016563800
  -0.0002250300    0.0004863600    0.0006397300
  -0.0004284000    0.0004201200    0.0006883400
  -0.0004297400    0.0004073600    0.0007093400
  -0.0005610800    0.0002850500    0.0006610000
  -0.0003521000    0.0004737000    0.0008042700
  -0.0004262900    0.0004327900    0.0007706100
  -0.0004236300    0.0004341100    0.0007612400
  -0.0003764500    0.0003854500    0.0008797700
  -0.0003697000    0.0004588000    0.0007849600
  -0.0003979200    0.0004577100    0.0007518100
  -0.0004054500    0.0004375300    0.0007307900
  -0.0003310400    0.0004450400    0.0007791000
  -0.0004611900   -0.0004306300    0.0012396800
  -0.0003611700   -0.0004600300    0.0007110200
  -0.0004312800   -0.0004446100    0.0007528800
  -0.0004171800   -0.0004578900    0.0007964600
  -0.0001447600   -0.0002026700    0.0005387900
  -0.0004669400   -0.0004602300    0.0005986200
  -0.0004528500   -0.0004603400    0.0007217800
  -0.0003889700   -0.0004215400    0.0008139400
  -0.0002022200   -0.0004791400    0.0007769400
  -0.0004279300   -0.0004909000    0.0007930500
  -0.0004291100   -0.0004422200    0.0007463200
  -0.0004188600   -0.0004056400    0.0006652000
  -0.0004498100   -0.0009109800    0.0001863100
  -0.0002737800   -0.0004758100    0.0007107400
  -0.0004458300   -0.0004684100    0.0007000900
  -0.0006427600   -0.0006898300    0.0002782500
   0.0004284900   -0.0003714300   -0.0002670900
   0.0001639400   -0.0004880300   -0.0008439100
   0.0003326100   -0.0004523200   -0.0007821900
   0.0003305300   -0.0004340500   -0.0007630900
   0.0004562100   -0.0004050100   -0.0007081700
   0.0004044400   -0.0004483300   -0.0006978200
   0.0003278400   -0.0004464500   -0.0007764800
   0.0003570100   -0.0004299400   -0.0007418900
  -0.0006965500    0.0004768500   -0.0043336400
   0.0002429300   -0.0005370900   -0.0006151200
   0.0002903300   -0.0004565200   -0.0007926100
   0.0006713000   -0.0004564400   -0.0008284800
   0.0005067700   -0.0002810000   -0.0008752500
   0.0003153500   -0.0003267500   -0.0006733400
   0.0003266300   -0.0004530500   -0.0007574900
   0.0001675600   -0.0006278700   -0.0005641100
   0.0034604300   -0.0027021700   -0.0058451500
   0.0022685500   -0.0020480600    0.0000554400
   0.0012432700   -0.0022490600   -0.0004518000
   0.0012942800   -0.0021942000   -0.0001377600
   0.0013256400   -0.0027901500   -0.0003548400
   0.0013284600   -0.0021643500   -0.0005098400
   0.0012397800   -0.0022688000   -0.0004877500
   0.0012443000   -0.0023099200   -0.0004483800
   0.0015863800   -0.0022580100   -0.0003276200
   0.0012654500   -0.0023333100   -0.0004281500
   0.0012373600   -0.0022888600   -0.0004660900
   0.0012396400   -0.0023004400   -0.0004393900
   0.0014236400   -0.0022766500   -0.0004195000
   0.0011977000   -0.0022711200   -0.0004078700
   0.0012334200   -0.0022805800   -0.0004629600
   0.0012791400   -0.0022922000   -0.0004643000
  -0.0012723300   -0.0022304000    0.0002208500
  -0.0011848100   -0.0022835300    0.0003701400
  -0.0013416800   -0.0022849200    0.0004366400
  -0.0013799700   -0.0021246800    0.0003514300
  -0.0031347400   -0.0044497600   -0.0007936800
  -0.0014148900   -0.0020707300    0.0004150000
  -0.0014332300   -0.0022917200    0.0004374500
  -0.0014232000   -0.0024499800    0.0004362700
  -0.0012086300   -0.0022981900    0.0005071300
  -0.0012777000   -0.0023088400    0.0005165000
  -0.0013282100   -0.0022854700    0.0004610200
  -0.0013181000   -0.0022594800    0.0004669100
  -0.0012178300   -0.0022783000    0.0005139600
  -0.0012723300   -0.0022595300    0.0005037600
  -0.0013115200   -0.0022842200    0.0004791800
  -0.0013395300   -0.0023188900    0.0004527200
  -0.0010616200    0.0022947100    0.0009182500
  -0.0012783600    0.0022283200    0.0004667400
  -0.0013774500    0.0022649100    0.0004722200
  -0.0012895900    0.0023260400    0.0004178400
  -0.0011004800    0.0024071600    0.0004637100
  -0.0014241300    0.0023393900    0.0004896800
  -0.0013803500    0.0022474100    0.0004946500
  -0.0014230000    0.0021323500    0.0005436000
  -0.0012630500    0.0025162300    0.0004102000
  -0.0013157500    0.0022885100    0.0004760300
  -0.0013229500    0.0023031000    0.0004376800
  -0.0012114700    0.0024413100    0.0005042100
  -0.0013060500    0.0022604500    0.0006827600
  -0.0013294400    0.0023011500    0.0004819500
  -0.0013110900    0.0022976000    0.0004546200
  -0.0012132900    0.0022966200    0.0004400200
   0.0014291900    0.0025975000   -0.0008252100
   0.0012412400    0.0022868500   -0.0004807400
   0.0011867900    0.0022643200   -0.0004946800
   0.0013149200    0.0021899000   -0.0003273100
   0.0013017300    0.0022666600   -0.0004267400
   0.0012549200    0.0022893200   -0.0004879800
   0.0012589000    0.0022853400   -0.0004565400
   0.0013076900    0.0022733700   -0.0003654200
   0.0114081400   -0.0021508500   -0.0108227900
   0.0007363900    0.0024839700   -0.0002013200
   0.0008181000    0.0021447600   -0.0006833000
   0.0092016100    0.0066003900    0.0053827700
   0.0014490600    0.0021746500   -0.0005872600
   0.0012263100    0.0022621300   -0.0004671500
   0.0012386700    0.0022953000   -0.0005051200
   0.0012863000    0.0023181300   -0.0005360900

1    
 -0.0099999892567478   0.0000000000000000  -0.0000146582716918
   0.0522764000    0.0022541000   -0.0028104600
  -0.0083025100    0.0006286500   -0.0026355700
  -0.0049641500    0.0003598600   -0.0024930400
  -0.0083742800    0.0003421100   -0.0021869500
  -0.0032237500    0.0004372300   -0.0027791300
  -0.0037148400    0.0002415800   -0.0024109700
  -0.0036600100    0.0003613100   -0.0024353900
  -0.0037150700    0.0002702900   -0.0024791900
  -0.0033585400    0.0003296900   -0.0024083200
  -0.0038958400    0.0004523600   -0.0026115500
  -0.0037330100    0.0003722900   -0.0025029000
  -0.0038959700    0.0004523600   -0.0027641400
  -0.0034706100    0.0003852300   -0.0023630400
  -0.0036134100    0.0003867700   -0.0024095800
  -0.0036583000    0.0003692800   -0.0024406500
  -0.0036136200    0.0003833700   -0.0023957800
   0.0037556400    0.0036643600    0.0038333000
   0.0034744000   -0.0004221500    0.0028979800
   0.0034721600    0.0004124800    0.0024966000
   0.0034285000    0.0005485700    0.0026610600
   0.0037618300   -0.0019504300    0.0037388200
   0.0034751300    0.0010582000    0.0016823100
   0.0034730100    0.0004035200    0.0024243800
   0.0034301400    0.0001721900    0.0024883800
   0.0036688500    0.0004261700    0.0024552800
   0.0035812800    0.0004270100    0.0026168800
   0.0035165900    0.0003854200    0.0024269100
   0.0035147400    0.0003994400    0.0023340500
   0.0036692200    0.0003082400    0.0025007400
   0.0035820500    0.0003703400    0.0025291200
   0.0035165700    0.0003887600    0.0024217800
   0.0035145700    0.0004268100    0.0024088100
   0.0037791500   -0.0005608300    0.0026218500
   0.0035769200   -0.0003588000    0.0024705200
   0.0034949200   -0.0003713000    0.0024147300
   0.0036247400   -0.0003443200    0.0025285300
   0.0037729300   -0.0001777500    0.0024055500
   0.0036112200   -0.0004289700    0.0023659900
   0.0035162400   -0.0004013400    0.0023934200
   0.0035448100   -0.0003804300    0.0025108900
   0.0030254900   -0.0020301700    0.0030321400
   0.0034704600   -0.0005189400    0.0024796400
   0.0035629500   -0.0004397900    0.0023974500
   0.0035226000   -0.0001074700    0.0020209100
   0.0024196600    0.0012562700    0.0037166100
   0.0034517900   -0.0003655500    0.0025122300
   0.0034785300   -0.0003979400    0.0024657800
   0.0027065400   -0.0019848400    0.0015418500
  -0.0023427400   -0.0008979700   -0.0048395800
  -0.0036152800   -0.0003491100   -0.0026504600
  -0.0036993300   -0.0003934600   -0.0025432900
  -0.0039854800   -0.0003472400   -0.0015550300
  -0.0034951600   -0.0004071200   -0.0024050300
  -0.0036397700   -0.0002791900   -0.0025051300
  -0.0037014600   -0.0003560900   -0.0024140400
  -0.0037269900   -0.0004803100   -0.0021044800
  -0.0039697300    0.0001739900   -0.0023586800
  -0.0036976500   -0.0003490400   -0.0026118500
  -0.0036132200   -0.0003580800   -0.0026938200
  -0.0023155100   -0.0001962300   -0.0056315600
  -0.0037275000   -0.0002859700   -0.0021377900
  -0.0037010700   -0.0003650800   -0.0023917600
  -0.0036403800   -0.0003970000   -0.0024314100
  -0.0034954900   -0.0003617100   -0.0024615000
  -0.0111900000    0.0121689300   -0.0107789800
   0.0003526400   -0.0000497400   -0.0003341500
   0.0005902100    0.0004115700   -0.0006410700
  -0.0004637500   -0.0002591500    0.0005308100
   0.0001124100    0.0004054200   -0.0007167700
   0.0003615400    0.0004266400   -0.0007443800
   0.0004334800    0.0004086600   -0.0007637000
   0.0006834000    0.0005151700   -0.0007878300
   0.0003455400    0.0004738100   -0.0007948300
   0.0004389100    0.0004150900   -0.0007221600
   0.0004140700    0.0004505900   -0.0007064200
   0.0003330800    0.0006887500   -0.0002208700
   0.0003544000    0.0004009200   -0.0008620400
   0.0004053700    0.0004384100   -0.0007748100
   0.0004234100    0.0004455800   -0.0007391900
   0.0003623100    0.0004503400   -0.0007676900
  -0.0137808200   -0.0156526200   -0.0018928400
  -0.0001482900    0.0009518200    0.0006820700
  -0.0000316000    0.0004271700    0.0007425900
  -0.0016715100    0.0022993900   -0.0001598600
  -0.0005149100    0.0004090300    0.0008676900
  -0.0003129400    0.0004772100    0.0008186800
  -0.0003113800    0.0004899500    0.0007974900
  -0.0001794500    0.0006122200    0.0008457800
  -0.0003892600    0.0004236300    0.0007026700
  -0.0003142900    0.0004651000    0.0007367000
  -0.0003179700    0.0004632200    0.0007451400
  -0.0003647300    0.0005121700    0.0006264700
  -0.0003713700    0.0004387600    0.0007221300
  -0.0003432600    0.0004397500    0.0007551400
  -0.0003360000    0.0004597900    0.0007758400
  -0.0004102400    0.0004523300    0.0007277200
  -0.0002787400   -0.0004684000    0.0002643600
  -0.0003797800   -0.0004381400    0.0007946000
  -0.0003105600   -0.0004536900    0.0007551200
  -0.0003240700   -0.0004403200    0.0007112600
  -0.0005982600   -0.0006966800    0.0009723200
  -0.0002698600   -0.0004445100    0.0009175100
  -0.0002887300   -0.0004384700    0.0007859800
  -0.0003526700   -0.0004764900    0.0006939800
  -0.0005390600   -0.0004180700    0.0007307500
  -0.0003132600   -0.0004079300    0.0007149000
  -0.0003122700   -0.0004562300    0.0007617600
  -0.0003222700   -0.0004932200    0.0008439300
  -0.0002958900    0.0000122300    0.0013229000
  -0.0004661500   -0.0004225500    0.0007970600
  -0.0002954200   -0.0004296000    0.0008083000
  -0.0000957500   -0.0002085000    0.0012322600
   0.0003129800   -0.0005286700   -0.0012429000
   0.0005786200   -0.0004062600   -0.0006604000
   0.0004084400   -0.0004446200   -0.0007248100
   0.0004117400   -0.0004639700   -0.0007455200
   0.0002846000   -0.0004921200   -0.0007994200
   0.0003364600   -0.0004494600   -0.0008093000
   0.0004128700   -0.0004511800   -0.0007308100
   0.0003840800   -0.0004678700   -0.0007654200
   0.0014185400   -0.0013788200    0.0028216000
   0.0004996300   -0.0003609200   -0.0008915200
   0.0004509200   -0.0004413700   -0.0007137100
   0.0000620100   -0.0004366200   -0.0006814100
   0.0002347600   -0.0006205800   -0.0006322300
   0.0004245000   -0.0005698300   -0.0008326600
   0.0004146300   -0.0004446400   -0.0007494100
   0.0005729300   -0.0002697600   -0.0009438400
  -0.0008848200   -0.0018417900    0.0050468600
   0.0003077300   -0.0025264400   -0.0009836500
   0.0013254100   -0.0023286000   -0.0004810700
   0.0012750800   -0.0023856800   -0.0007981400
   0.0012441800   -0.0017847200   -0.0005760200
   0.0012405000   -0.0024099300   -0.0004221500
   0.0013288600   -0.0023084800   -0.0004435300
   0.0013241100   -0.0022671400   -0.0004826600
   0.0009826600   -0.0023208200   -0.0006069400
   0.0013023700   -0.0022444600   -0.0005016000
   0.0013308900   -0.0022883000   -0.0004651900
   0.0013274300   -0.0022760900   -0.0004922800
   0.0011445800   -0.0023008100   -0.0005121100
   0.0013713900   -0.0023061000   -0.0005235300
   0.0013353400   -0.0022969200   -0.0004681900
   0.0012894500   -0.0022855400   -0.0004667400
  -0.0012973900   -0.0023513300    0.0007113200
  -0.0013842200   -0.0022935600    0.0005618200
  -0.0012274100   -0.0022932400    0.0004945600
  -0.0011867400   -0.0024573300    0.0005809300
   0.0005561500   -0.0001116300    0.0017380000
  -0.0011481400   -0.0025081700    0.0005132500
  -0.0011362900   -0.0022850600    0.0004940700
  -0.0011539100   -0.0021299400    0.0004939500
  -0.0013607200   -0.0022796300    0.0004231300
  -0.0012917300   -0.0022684000    0.0004138200
  -0.0012408600   -0.0022921000    0.0004694000
  -0.0012509700   -0.0023187100    0.0004633300
  -0.0013517200   -0.0022994900    0.0004169500
  -0.0012969800   -0.0023188600    0.0004267000
  -0.0012576400   -0.0022936000    0.0004514200
  -0.0012297700   -0.0022587300    0.0004776500
  -0.0015116100    0.0022834000    0.0000134300
  -0.0012896700    0.0023499200    0.0004642900
  -0.0011909200    0.0023127300    0.0004589400
  -0.0012830200    0.0022535900    0.0005161500
  -0.0014687300    0.0021702900    0.0004673900
  -0.0011468900    0.0022385400    0.0004395500
  -0.0011890700    0.0023305100    0.0004364500
  -0.0011492200    0.0024468100    0.0003891000
  -0.0013052500    0.0020613400    0.0005195700
  -0.0012527000    0.0022892800    0.0004552900
  -0.0012459300    0.0022747300    0.0004935400
  -0.0013578100    0.0021375500    0.0004252200
  -0.0012618100    0.0023175600    0.0002497200
  -0.0012390200    0.0022762100    0.0004492900
  -0.0012575900    0.0022794800    0.0004766200
  -0.0013550500    0.0022805700    0.0004907200
   0.0011393400    0.0019802800   -0.0001046300
   0.0013281400    0.0022907600   -0.0004499700
   0.0013824100    0.0023135300   -0.0004367500
   0.0012552000    0.0023900100   -0.0006079000
   0.0012678700    0.0023108600   -0.0005043200
   0.0013144100    0.0022884100   -0.0004430100
   0.0013103600    0.0022920800   -0.0004740600
   0.0012614100    0.0023039000   -0.0005655900
  -0.0084423800    0.0065360100    0.0094998600
   0.0018316800    0.0020967400   -0.0007243300
   0.0017548900    0.0024358300   -0.0002415600
  -0.0069954700   -0.0022052300   -0.0066279900
   0.0011201700    0.0024027900   -0.0003426900
   0.0013428400    0.0023158500   -0.0004632800
   0.0013304500    0.0022821200   -0.0004253900
   0.0012828100    0.0022589100   -0.0003939900

1    
  0.0000000000000000   0.0100000000000000   0.0000000000000000
  -0.0058917900   -0.0517640500   -0.0034880600
  -0.0035671700   -0.0000024500   -0.0024848800
  -0.0035858600    0.0003735500   -0.0024811600
  -0.0038533600   -0.0000017800   -0.0022621300
  -0.0036620000    0.0009987500   -0.0024061900
  -0.0034970400    0.0005269700   -0.0024827600
  -0.0035877700    0.0004110800   -0.0024231900
  -0.0034699500    0.0005253500   -0.0022781200
  -0.0035562000    0.0003870800   -0.0025409100
  -0.0036798700    0.0004800900   -0.0025167100
  -0.0035991200    0.0003910800   -0.0024459500
  -0.0036771000    0.0004794800   -0.0027210400
  -0.0036118600    0.0004066200   -0.0024171200
  -0.0036095400    0.0004094600   -0.0024396500
  -0.0035959500    0.0003824100   -0.0024063500
  -0.0036134600    0.0004094100   -0.0024186300
   0.0012576800    0.0059459900    0.0045680000
   0.0043157500    0.0006060300    0.0019427100
   0.0036312900    0.0003642200    0.0024354100
   0.0033985400    0.0003462300    0.0024855300
   0.0068677800    0.0058732800   -0.0011495900
   0.0027998900    0.0005908100    0.0017622100
   0.0036390500    0.0003642000    0.0024265300
   0.0037732700    0.0003478900    0.0023970000
   0.0035344300    0.0003726100    0.0022946500
   0.0035973100    0.0004236100    0.0024838400
   0.0036149300    0.0003565400    0.0024433200
   0.0036524700    0.0002836800    0.0024112900
   0.0036523000    0.0003734900    0.0024807800
   0.0036538600    0.0004240800    0.0022747500
   0.0036115800    0.0003567300    0.0023966800
   0.0036254500    0.0002843300    0.0024944300
   0.0037877500   -0.0004493400    0.0027325100
   0.0035849800   -0.0003392000    0.0024016000
   0.0035976600   -0.0003879600    0.0024481100
   0.0035714600   -0.0002126700    0.0023832800
   0.0034071700   -0.0004748900    0.0021089800
   0.0036559500   -0.0004093500    0.0023646600
   0.0036278300   -0.0003744900    0.0024337000
   0.0036060100   -0.0001991800    0.0025071800
   0.0052704600    0.0015384500    0.0005128100
   0.0037469600   -0.0004261200    0.0024740500
   0.0036667400   -0.0003656400    0.0024380300
   0.0033353200   -0.0000051900    0.0021879900
   0.0019754600    0.0018321200    0.0042224900
   0.0035926300   -0.0003480400    0.0023703100
   0.0036249400   -0.0004192600    0.0024272800
   0.0051955500    0.0016403300    0.0036155800
  -0.0034302200   -0.0016279400   -0.0031928100
  -0.0035841800   -0.0003742400   -0.0024884900
  -0.0035748300   -0.0003715100   -0.0025048000
  -0.0030459100   -0.0001450600   -0.0028107000
  -0.0035882200   -0.0003358200   -0.0023907100
  -0.0036225700   -0.0003080200   -0.0024429200
  -0.0035915400   -0.0003563400   -0.0024391700
  -0.0035150600    0.0004769800   -0.0025293100
  -0.0035738300   -0.0001475800   -0.0026989500
  -0.0036198400   -0.0003721100   -0.0024610100
  -0.0035755200   -0.0003745700   -0.0024077900
  -0.0041224200   -0.0016273800   -0.0035157700
  -0.0037070500    0.0004777600   -0.0024224500
  -0.0035822300   -0.0003563900   -0.0024382400
  -0.0035058100   -0.0003081200   -0.0024702000
  -0.0036322600   -0.0003357900   -0.0024670500
  -0.0116114600    0.0119637000   -0.0113398300
   0.0003476700    0.0004683900   -0.0007495200
   0.0003565900    0.0005073600   -0.0007275000
   0.0007629900    0.0003479700   -0.0013542800
   0.0003391000    0.0002344700   -0.0006442500
   0.0004078400    0.0004210200   -0.0007573900
   0.0003582200    0.0004015600   -0.0007585100
   0.0011597000    0.0000558600   -0.0009197500
   0.0003813800    0.0004713600   -0.0007292200
   0.0003863200    0.0004423300   -0.0007295600
   0.0003606100    0.0004640700   -0.0007543600
   0.0003484900    0.0005862600   -0.0004414500
   0.0004405500    0.0004068700   -0.0008691300
   0.0003724400    0.0004437200   -0.0007413300
   0.0003746800    0.0004400800   -0.0007407700
   0.0003974200    0.0004261000   -0.0007334700
   0.0143699600    0.0159877000    0.0039256900
  -0.0003004500    0.0005082800    0.0007556800
  -0.0003419700    0.0005035600    0.0008080900
  -0.0008763700    0.0004108200    0.0001170500
  -0.0004982100    0.0004088800    0.0008944000
  -0.0004089600    0.0004355700    0.0008117900
  -0.0003609500    0.0003944500    0.0007395900
  -0.0005417900    0.0001693100    0.0004339800
  -0.0003899700    0.0004988000    0.0007945600
  -0.0003543100    0.0004594100    0.0007731800
  -0.0003452200    0.0004558700    0.0007579500
  -0.0003762300    0.0004459000    0.0008314500
  -0.0003424600    0.0004179400    0.0007057400
  -0.0003757100    0.0004382500    0.0007681900
  -0.0003834300    0.0004288500    0.0007419400
  -0.0003750600    0.0004201900    0.0007657900
  -0.0001726000   -0.0007875400    0.0001601800
  -0.0004441200   -0.0004612900    0.0007620000
  -0.0003679400   -0.0004749400    0.0007255800
  -0.0003550800   -0.0005128000    0.0007656700
  -0.0003629600   -0.0002637200    0.0008548900
  -0.0003143700   -0.0003835900    0.0009378000
  -0.0003844200   -0.0004288000    0.0007545500
  -0.0004235000   -0.0004474300    0.0007652900
  -0.0001875900   -0.0005754100    0.0008855200
  -0.0002866700   -0.0005612800    0.0007399200
  -0.0003897800   -0.0004625300    0.0007613800
  -0.0002881100   -0.0005077300    0.0008599100
  -0.0006057500   -0.0001488000    0.0017067000
  -0.0003786400   -0.0004339700    0.0007942200
  -0.0003841200   -0.0004410500    0.0007416500
  -0.0005301100   -0.0004371100    0.0004611300
   0.0004560100   -0.0004861200   -0.0008137200
   0.0005085900   -0.0004431800   -0.0007481200
   0.0003532800   -0.0004494600   -0.0007574900
   0.0003193100   -0.0004585300   -0.0006861500
   0.0003523900   -0.0004529000   -0.0009072200
   0.0003935100   -0.0004724400   -0.0007559000
   0.0003811000   -0.0004595100   -0.0007450900
   0.0003508300   -0.0004749300   -0.0007542100
   0.0003482800    0.0018089800   -0.0047150900
   0.0002873200   -0.0004277100   -0.0007074000
   0.0003460300   -0.0004373500   -0.0007369500
   0.0002319500   -0.0003703700   -0.0007962600
   0.0002648500   -0.0009075500   -0.0009838900
   0.0004058600   -0.0006020100   -0.0008654500
   0.0003696400   -0.0004512200   -0.0007647100
   0.0000654200   -0.0006970300   -0.0005004900
  -0.0011525000   -0.0027644100    0.0045057900
   0.0015169200   -0.0024377300   -0.0001342300
   0.0012878100   -0.0022953900   -0.0004705600
   0.0012508500   -0.0023141000   -0.0005598900
   0.0015062200   -0.0031426000   -0.0003070800
   0.0012916500   -0.0022909000   -0.0004732100
   0.0012955600   -0.0023195900   -0.0004652600
   0.0011881700   -0.0023185900   -0.0004387500
   0.0012743500   -0.0022075200   -0.0002582400
   0.0012893700   -0.0022605700   -0.0004636500
   0.0012796600   -0.0022928800   -0.0004785800
   0.0013701500   -0.0023783000   -0.0003747200
   0.0012735100   -0.0023311200   -0.0004725400
   0.0012820900   -0.0023291500   -0.0004529800
   0.0012675400   -0.0022897900   -0.0004673000
   0.0012710300   -0.0023120800   -0.0004846900
  -0.0017438100   -0.0011564100    0.0003387500
  -0.0011703700   -0.0022107900    0.0003284400
  -0.0013081200   -0.0022914100    0.0004565700
  -0.0012062500   -0.0024320100    0.0004638900
  -0.0011385700    0.0069656200    0.0053649500
  -0.0011078400   -0.0022251400    0.0005544200
  -0.0012788100   -0.0022661400    0.0004736700
  -0.0013038600   -0.0022021700    0.0005414700
  -0.0012432800   -0.0023120600    0.0004294500
  -0.0013115700   -0.0022872200    0.0004871000
  -0.0012843700   -0.0022803000    0.0004531800
  -0.0012905700   -0.0022983600    0.0004592100
  -0.0013044500   -0.0022653600    0.0004846000
  -0.0012562000   -0.0022943300    0.0004833700
  -0.0012658600   -0.0022819500    0.0004758700
  -0.0012634500   -0.0022425500    0.0004724400
  -0.0013106300    0.0028456700    0.0009004400
  -0.0013077200    0.0022892300    0.0004415800
  -0.0012853500    0.0023177300    0.0004319200
  -0.0011009200    0.0024948700    0.0003757700
  -0.0011072500    0.0022808600    0.0006730000
  -0.0011754000    0.0022438400    0.0005229300
  -0.0012997200    0.0022682400    0.0004765100
  -0.0020765400    0.0021761300    0.0008415100
  -0.0012796700    0.0025884000    0.0006097300
  -0.0013228500    0.0023203000    0.0004854700
  -0.0013016600    0.0023029500    0.0004645700
  -0.0011584700    0.0023126200    0.0006890000
  -0.0011681100    0.0020643800    0.0002732800
  -0.0012780800    0.0022854300    0.0004713600
  -0.0012837200    0.0023110200    0.0004781000
  -0.0012537400    0.0022240100    0.0004118000
   0.0012895200    0.0022427400   -0.0003976900
   0.0012934700    0.0022719200   -0.0004435600
   0.0013103400    0.0022901700   -0.0004326100
   0.0012435000    0.0022350700   -0.0003302600
   0.0012690600    0.0022446100   -0.0005102000
   0.0012680700    0.0022662100   -0.0004755900
   0.0012767100    0.0022776500   -0.0004667100
   0.0012499300    0.0022913800   -0.0004176500
  -0.0033085300   -0.0005794600    0.0034074000
   0.0012320900    0.0022670100   -0.0004041600
   0.0012875300    0.0022782800   -0.0004341700
   0.0047506600    0.0024880400    0.0017785300
   0.0013418800    0.0021544500   -0.0004981000
   0.0012417000    0.0022489800   -0.0004531400
   0.0012522900    0.0022793500   -0.0004767100
   0.0013137400    0.0021874400   -0.0004197000

1    
  0.0000000000000000  -0.0100000000000000   0.0000000000000000
  -0.0021828700    0.0526330400   -0.0014608700
  -0.0036311600    0.0007459600   -0.0023777200
  -0.0036111700    0.0003729600   -0.0023807500
  -0.0033355400    0.0007467500   -0.0025997100
  -0.0035339200   -0.0002519700   -0.0024566900
  -0.0037026000    0.0002203700   -0.0023791800
  -0.0036108300    0.0003346700   -0.0024383000
  -0.0037315900    0.0002187500   -0.0025834000
  -0.0036431500    0.0003594400   -0.0023208100
  -0.0035210200    0.0002679900   -0.0023490800
  -0.0035999000    0.0003551100   -0.0024149500
  -0.0035206400    0.0002674900   -0.0021374800
  -0.0035869100    0.0003386000   -0.0024437800
  -0.0035890900    0.0003363500   -0.0024214500
  -0.0036028800    0.0003632100   -0.0024548900
  -0.0035854400    0.0003362700   -0.0024419900
   0.0059074000   -0.0051317800    0.0003344100
   0.0029137400    0.0001564100    0.0029306100
   0.0035690700    0.0003815100    0.0024254500
   0.0037985200    0.0003976300    0.0023753000
   0.0002876600   -0.0052048100    0.0060675700
   0.0044225200    0.0001408700    0.0031073800
   0.0035612300    0.0003814900    0.0024339000
   0.0034241700    0.0003992400    0.0024632600
   0.0036631700    0.0003718800    0.0025677500
   0.0036019100    0.0003214400    0.0023772900
   0.0035837800    0.0003890400    0.0024178400
   0.0035463100    0.0004617600    0.0024498600
   0.0035463500    0.0003725900    0.0023798100
   0.0035450900    0.0003217900    0.0025864200
   0.0035867800    0.0003891900    0.0024639800
   0.0035729000    0.0004622600    0.0023660800
   0.0034126800   -0.0002980200    0.0021313300
   0.0036137100   -0.0004068400    0.0024595100
   0.0036007700   -0.0003584200    0.0024133400
   0.0036265400   -0.0005359600    0.0024792700
   0.0037949700   -0.0002688300    0.0027550100
   0.0035428000   -0.0003366900    0.0024968800
   0.0035710200   -0.0003712900    0.0024276600
   0.0035919500   -0.0005460800    0.0023541700
   0.0019480100   -0.0022698400    0.0043252400
   0.0034539900   -0.0003206000    0.0023881100