  12  12   0   0
  0.1931523E+02  0.4418591E-09  0.6887581E-09  0.7901494E-09  0.5000000E-15
  1.000000000000000E-004
  CAR 
 unknown system                          
     18.08548258     -8.60436020  301      6.46238073      1.00000000
     -8.604  0.0000E+00  0.0000E+00
     -8.515  0.0000E+00  0.0000E+00
     -8.426  0.0000E+00  0.0000E+00
     -8.337  0.0000E+00  0.0000E+00
     -8.248  0.0000E+00  0.0000E+00
     -8.160  0.0000E+00  0.0000E+00
     -8.071  0.0000E+00  0.0000E+00
     -7.982  0.0000E+00  0.0000E+00
     -7.893  0.0000E+00  0.0000E+00
     -7.804  0.0000E+00  0.0000E+00
     -7.715  0.0000E+00  0.0000E+00
     -7.626  0.3825E-11  0.3403E-12
     -7.537  0.4482E-05  0.3987E-06
     -7.448  0.1294E-01  0.1151E-02
     -7.359  0.3183E+00  0.2947E-01
     -7.270  0.1739E+01  0.1842E+00
     -7.181  0.3082E+01  0.4583E+00
     -7.092  0.3531E+01  0.7725E+00
     -7.003  0.6862E+01  0.1383E+01
     -6.914  0.8743E+01  0.2161E+01
     -6.825  0.1462E+02  0.3461E+01
     -6.736  0.2197E+02  0.5416E+01
     -6.647  0.1855E+02  0.7066E+01
     -6.558  0.9760E+01  0.7934E+01
     -6.469  0.7404E+00  0.8000E+01
     -6.380  0.1080E-02  0.8000E+01
     -6.291  0.6736E-08  0.8000E+01
     -6.202  0.5200E-16  0.8000E+01
     -6.113  0.0000E+00  0.8000E+01
     -6.024  0.0000E+00  0.8000E+01
     -5.935  0.0000E+00  0.8000E+01
     -5.846  0.0000E+00  0.8000E+01
     -5.757  0.0000E+00  0.8000E+01
     -5.668  0.0000E+00  0.8000E+01
     -5.580  0.0000E+00  0.8000E+01
     -5.491  0.0000E+00  0.8000E+01
     -5.402  0.0000E+00  0.8000E+01
     -5.313  0.0000E+00  0.8000E+01
     -5.224  0.0000E+00  0.8000E+01
     -5.135  0.0000E+00  0.8000E+01
     -5.046  0.0000E+00  0.8000E+01
     -4.957  0.0000E+00  0.8000E+01
     -4.868  0.0000E+00  0.8000E+01
     -4.779  0.0000E+00  0.8000E+01
     -4.690  0.0000E+00  0.8000E+01
     -4.601  0.0000E+00  0.8000E+01
     -4.512  0.0000E+00  0.8000E+01
     -4.423  0.0000E+00  0.8000E+01
     -4.334  0.0000E+00  0.8000E+01
     -4.245  0.0000E+00  0.8000E+01
     -4.156  0.0000E+00  0.8000E+01
     -4.067  0.0000E+00  0.8000E+01
     -3.978  0.0000E+00  0.8000E+01
     -3.889  0.0000E+00  0.8000E+01
     -3.800  0.0000E+00  0.8000E+01
     -3.711  0.0000E+00  0.8000E+01
     -3.622  0.0000E+00  0.8000E+01
     -3.533  0.0000E+00  0.8000E+01
     -3.444  0.0000E+00  0.8000E+01
     -3.355  0.0000E+00  0.8000E+01
     -3.266  0.0000E+00  0.8000E+01
     -3.177  0.0000E+00  0.8000E+01
     -3.088  0.0000E+00  0.8000E+01
     -2.999  0.0000E+00  0.8000E+01
     -2.911  0.0000E+00  0.8000E+01
     -2.822  0.0000E+00  0.8000E+01
     -2.733  0.0000E+00  0.8000E+01
     -2.644  0.0000E+00  0.8000E+01
     -2.555  0.0000E+00  0.8000E+01
     -2.466  0.0000E+00  0.8000E+01
     -2.377  0.0000E+00  0.8000E+01
     -2.288  0.0000E+00  0.8000E+01
     -2.199  0.0000E+00  0.8000E+01
     -2.110  0.0000E+00  0.8000E+01
     -2.021  0.0000E+00  0.8000E+01
     -1.932  0.0000E+00  0.8000E+01
     -1.843  0.0000E+00  0.8000E+01
     -1.754  0.0000E+00  0.8000E+01
     -1.665  0.0000E+00  0.8000E+01
     -1.576  0.0000E+00  0.8000E+01
     -1.487  0.0000E+00  0.8000E+01
     -1.398  0.0000E+00  0.8000E+01
     -1.309  0.0000E+00  0.8000E+01
     -1.220  0.0000E+00  0.8000E+01
     -1.131  0.0000E+00  0.8000E+01
     -1.042  0.0000E+00  0.8000E+01
     -0.953  0.0000E+00  0.8000E+01
     -0.864  0.0000E+00  0.8000E+01
     -0.775  0.0000E+00  0.8000E+01
     -0.686  0.0000E+00  0.8000E+01
     -0.597  0.0000E+00  0.8000E+01
     -0.508  0.0000E+00  0.8000E+01
     -0.419  0.4126E-09  0.8000E+01
     -0.331  0.1083E-03  0.8000E+01
     -0.242  0.7947E-01  0.8007E+01
     -0.153  0.7121E+00  0.8070E+01
     -0.064  0.1402E+01  0.8195E+01
      0.025  0.3667E+01  0.8521E+01
      0.114  0.5908E+01  0.9047E+01
      0.203  0.1572E+02  0.1045E+02
      0.292  0.1450E+02  0.1174E+02
      0.381  0.1450E+02  0.1303E+02
      0.470  0.1668E+02  0.1451E+02
      0.559  0.1368E+02  0.1573E+02
      0.648  0.1268E+02  0.1686E+02
      0.737  0.1400E+02  0.1810E+02
      0.826  0.1695E+02  0.1961E+02
      0.915  0.1890E+02  0.2129E+02
      1.004  0.1767E+02  0.2286E+02
      1.093  0.1949E+02  0.2460E+02
      1.182  0.1822E+02  0.2622E+02
      1.271  0.1456E+02  0.2751E+02
      1.360  0.1776E+02  0.2909E+02
      1.449  0.2460E+02  0.3128E+02
      1.538  0.2618E+02  0.3361E+02
      1.627  0.2871E+02  0.3616E+02
      1.716  0.3350E+02  0.3914E+02
      1.805  0.3128E+02  0.4193E+02
      1.894  0.2659E+02  0.4429E+02
      1.983  0.2786E+02  0.4677E+02
      2.072  0.2832E+02  0.4929E+02
      2.161  0.3121E+02  0.5207E+02
      2.250  0.3609E+02  0.5528E+02
      2.338  0.3956E+02  0.5880E+02
      2.427  0.3982E+02  0.6234E+02
      2.516  0.3594E+02  0.6554E+02
      2.605  0.3536E+02  0.6868E+02
      2.694  0.3605E+02  0.7189E+02
      2.783  0.4076E+02  0.7552E+02
      2.872  0.4029E+02  0.7910E+02
      2.961  0.2961E+02  0.8173E+02
      3.050  0.2951E+02  0.8436E+02
      3.139  0.2727E+02  0.8679E+02
      3.228  0.2552E+02  0.8906E+02
      3.317  0.1586E+02  0.9047E+02
      3.406  0.1216E+02  0.9155E+02
      3.495  0.1190E+02  0.9261E+02
      3.584  0.1003E+02  0.9350E+02
      3.673  0.1289E+02  0.9465E+02
      3.762  0.8077E+01  0.9537E+02
      3.851  0.7050E+01  0.9599E+02
      3.940  0.8098E+01  0.9671E+02
      4.029  0.6042E+01  0.9725E+02
      4.118  0.5667E+01  0.9775E+02
      4.207  0.6995E+01  0.9838E+02
      4.296  0.5857E+01  0.9890E+02
      4.385  0.6572E+01  0.9948E+02
      4.474  0.7685E+01  0.1002E+03
      4.563  0.6902E+01  0.1008E+03
      4.652  0.7849E+01  0.1015E+03
      4.741  0.5092E+01  0.1019E+03
      4.830  0.6346E+01  0.1025E+03
      4.918  0.9098E+01  0.1033E+03
      5.007  0.9229E+01  0.1041E+03
      5.096  0.4361E+01  0.1045E+03
      5.185  0.3949E+01  0.1049E+03
      5.274  0.6959E+01  0.1055E+03
      5.363  0.9266E+01  0.1063E+03
      5.452  0.7278E+01  0.1070E+03
      5.541  0.4603E+01  0.1074E+03
      5.630  0.7959E+01  0.1081E+03
      5.719  0.9242E+01  0.1089E+03
      5.808  0.6172E+01  0.1094E+03
      5.897  0.6955E+01  0.1101E+03
      5.986  0.8259E+01  0.1108E+03
      6.075  0.4216E+01  0.1112E+03
      6.164  0.4046E+01  0.1115E+03
      6.253  0.2284E+01  0.1117E+03
      6.342  0.1868E+01  0.1119E+03
      6.431  0.8495E+00  0.1120E+03
      6.520  0.4265E+00  0.1120E+03
      6.609  0.3362E-01  0.1120E+03
      6.698  0.5664E-01  0.1120E+03
      6.787  0.1868E+00  0.1120E+03
      6.876  0.5994E+00  0.1121E+03
      6.965  0.9404E+00  0.1122E+03
      7.054  0.9552E+00  0.1123E+03
      7.143  0.6275E+00  0.1123E+03
      7.232  0.1578E+01  0.1125E+03
      7.321  0.2464E+01  0.1127E+03
      7.410  0.1586E+01  0.1128E+03
      7.499  0.2323E+01  0.1130E+03
      7.587  0.2864E+01  0.1133E+03
      7.676  0.1969E+01  0.1135E+03
      7.765  0.4180E+01  0.1138E+03
      7.854  0.4701E+01  0.1142E+03
      7.943  0.3256E+01  0.1145E+03
      8.032  0.4428E+01  0.1149E+03
      8.121  0.6845E+01  0.1155E+03
      8.210  0.3441E+01  0.1158E+03
      8.299  0.5602E+01  0.1163E+03
      8.388  0.6810E+01  0.1170E+03
      8.477  0.3577E+01  0.1173E+03
      8.566  0.4106E+01  0.1176E+03
      8.655  0.6597E+01  0.1182E+03
      8.744  0.2347E+01  0.1184E+03
      8.833  0.2256E+01  0.1186E+03
      8.922  0.4074E+01  0.1190E+03
      9.011  0.4622E+01  0.1194E+03
      9.100  0.3171E+01  0.1197E+03
      9.189  0.3779E+01  0.1200E+03
      9.278  0.2340E+01  0.1202E+03
      9.367  0.4135E+01  0.1206E+03
      9.456  0.5542E+01  0.1211E+03
      9.545  0.5268E+01  0.1216E+03
      9.634  0.2752E+01  0.1218E+03
      9.723  0.4558E+01  0.1222E+03
      9.812  0.6855E+01  0.1228E+03
      9.901  0.4389E+01  0.1232E+03
      9.990  0.7088E+01  0.1238E+03
     10.079  0.5670E+01  0.1243E+03
     10.167  0.5345E+01  0.1248E+03
     10.256  0.5049E+01  0.1253E+03
     10.345  0.6894E+01  0.1259E+03
     10.434  0.5835E+01  0.1264E+03
     10.523  0.3958E+01  0.1268E+03
     10.612  0.4831E+01  0.1272E+03
     10.701  0.6022E+01  0.1277E+03
     10.790  0.3737E+01  0.1281E+03
     10.879  0.5259E+01  0.1285E+03
     10.968  0.4797E+01  0.1289E+03
     11.057  0.3571E+01  0.1293E+03
     11.146  0.5697E+01  0.1298E+03
     11.235  0.5426E+01  0.1303E+03
     11.324  0.6288E+01  0.1308E+03
     11.413  0.6943E+01  0.1314E+03
     11.502  0.5473E+01  0.1319E+03
     11.591  0.7799E+01  0.1326E+03
     11.680  0.5971E+01  0.1331E+03
     11.769  0.6117E+01  0.1337E+03
     11.858  0.5231E+01  0.1342E+03
     11.947  0.1398E+01  0.1343E+03
     12.036  0.4098E+01  0.1346E+03
     12.125  0.4577E+01  0.1350E+03
     12.214  0.2766E+01  0.1353E+03
     12.303  0.5232E+01  0.1358E+03
     12.392  0.5477E+01  0.1362E+03
     12.481  0.4674E+01  0.1367E+03
     12.570  0.4663E+01  0.1371E+03
     12.659  0.4041E+01  0.1374E+03
     12.748  0.4822E+01  0.1379E+03
     12.836  0.2429E+01  0.1381E+03
     12.925  0.5176E+01  0.1385E+03
     13.014  0.6117E+01  0.1391E+03
     13.103  0.7524E+01  0.1398E+03
     13.192  0.4980E+01  0.1402E+03
     13.281  0.5678E+01  0.1407E+03
     13.370  0.5944E+01  0.1412E+03
     13.459  0.5768E+01  0.1417E+03
     13.548  0.3489E+01  0.1421E+03
     13.637  0.6026E+01  0.1426E+03
     13.726  0.5785E+01  0.1431E+03
     13.815  0.5484E+01  0.1436E+03
     13.904  0.5317E+01  0.1441E+03
     13.993  0.5335E+01  0.1445E+03
     14.082  0.4168E+01  0.1449E+03
     14.171  0.7018E+01  0.1455E+03
     14.260  0.6951E+01  0.1462E+03
     14.349  0.5221E+01  0.1466E+03
     14.438  0.6563E+01  0.1472E+03
     14.527  0.5333E+01  0.1477E+03
     14.616  0.4408E+01  0.1481E+03
     14.705  0.5845E+01  0.1486E+03
     14.794  0.8004E+01  0.1493E+03
     14.883  0.8130E+01  0.1500E+03
     14.972  0.7466E+01  0.1507E+03
     15.061  0.4909E+01  0.1511E+03
     15.150  0.4474E+01  0.1515E+03
     15.239  0.4095E+01  0.1519E+03
     15.328  0.8931E+01  0.1527E+03
     15.416  0.7086E+01  0.1533E+03
     15.505  0.6185E+01  0.1539E+03
     15.594  0.7088E+01  0.1545E+03
     15.683  0.4416E+01  0.1549E+03
     15.772  0.4275E+01  0.1553E+03
     15.861  0.5643E+01  0.1558E+03
     15.950  0.6089E+01  0.1563E+03
     16.039  0.7310E+01  0.1570E+03
     16.128  0.7299E+01  0.1576E+03
     16.217  0.4137E+01  0.1580E+03
     16.306  0.5798E+01  0.1585E+03
     16.395  0.4776E+01  0.1589E+03
     16.484  0.4995E+01  0.1594E+03
     16.573  0.2989E+01  0.1596E+03
     16.662  0.1495E+01  0.1598E+03
     16.751  0.2532E+00  0.1598E+03
     16.840  0.1488E+01  0.1599E+03
     16.929  0.8524E+00  0.1600E+03
     17.018  0.2839E-01  0.1600E+03
     17.107  0.9021E-05  0.1600E+03
     17.196  0.7652E-11  0.1600E+03
     17.285  0.0000E+00  0.1600E+03
     17.374  0.0000E+00  0.1600E+03
     17.463  0.0000E+00  0.1600E+03
     17.552  0.0000E+00  0.1600E+03
     17.641  0.0000E+00  0.1600E+03
     17.730  0.0000E+00  0.1600E+03
     17.819  0.0000E+00  0.1600E+03
     17.908  0.0000E+00  0.1600E+03
     17.997  0.0000E+00  0.1600E+03
     18.085  0.0000E+00  0.1600E+03
