<?xml version="1.0" encoding="ISO-8859-1"?>
<modeling>
 <generator>
  <i name="program" type="string">vasp </i>
  <i name="version" type="string">5.4.4.18Apr17-6-g9f103f2a35  </i>
  <i name="subversion" type="string">(build Jul 30 2020 14:31:59) complex            parallel </i>
  <i name="platform" type="string">LinuxIFC </i>
  <i name="date" type="string">2021 02 04 </i>
  <i name="time" type="string">08:17:35 </i>
 </generator>
 <incar>
  <i type="string" name="PREC">accurate</i>
  <i type="string" name="ALGO"> normal</i>
  <i type="logical" name="ADDGRID"> T  </i>
  <i type="int" name="ISPIN">     1</i>
  <i type="int" name="NELM">   200</i>
  <i type="int" name="NELMIN">     8</i>
  <i name="EDIFF">      0.00000001</i>
  <i type="int" name="ISIF">     3</i>
  <i type="int" name="ISYM">     0</i>
  <i name="ENCUT">    650.00000000</i>
  <i type="logical" name="LREAL"> F  </i>
  <i type="int" name="ISMEAR">     0</i>
  <i name="SIGMA">      0.05000000</i>
  <i type="logical" name="LWAVE"> F  </i>
  <i type="logical" name="LASPH"> T  </i>
  <v type="int" name="KPOINT_BSE">    -1     0     0     0</v>
  <i type="int" name="NELM">   200</i>
  <i type="string" name="GGA"> ps</i>
  <i type="logical" name="LASPH"> T  </i>
 </incar>
 <structure name="primitive_cell" >
  <crystal>
   <varray name="basis" >
    <v>      14.01039598       0.00139138       0.00000000 </v>
    <v>      -0.00150196      13.76691092       0.00000000 </v>
    <v>       0.00000000       0.00000000      14.55019386 </v>
   </varray>
   <i name="volume">   2806.43958022 </i>
   <varray name="rec_basis" >
    <v>       0.07137557       0.00000779       0.00000000 </v>
    <v>      -0.00000721       0.07263794       0.00000000 </v>
    <v>       0.00000000       0.00000000       0.06872761 </v>
   </varray>
  </crystal>
  <varray name="positions" >
   <v>       0.42987898       0.17167077       0.33247735 </v>
   <v>      -0.50000000       0.00000000       0.38812698 </v>
   <v>       0.25000000       0.25000000       0.33409665 </v>
   <v>      -0.50000000       0.25000000       0.16743769 </v>
   <v>      -0.42987656       0.07832506       0.22308000 </v>
   <v>      -0.50000000       0.25000000      -0.49922898 </v>
   <v>       0.32012224       0.17167631       0.49914189 </v>
   <v>       0.32012224       0.17167631       0.16580856 </v>
   <v>      -0.42987898       0.32832923       0.33247735 </v>
   <v>       0.42987656      -0.07832506       0.22308000 </v>
   <v>       0.42987656       0.42167494       0.22308000 </v>
   <v>       0.25000000       0.00072638       0.22145206 </v>
   <v>       0.17987948       0.07832633       0.38974408 </v>
   <v>      -0.32012052       0.07832633       0.38974408 </v>
   <v>       0.32012052      -0.07832633       0.38974408 </v>
   <v>       0.32012052       0.42167367       0.38974408 </v>
   <v>      -0.42987656       0.07832506      -0.44358667 </v>
   <v>      -0.25000000       0.25000000       0.33409665 </v>
   <v>      -0.50000000      -0.50000000       0.38812698 </v>
   <v>       0.25000000       0.00000000      -0.44521461 </v>
   <v>       0.42987656      -0.07832506      -0.44358667 </v>
   <v>       0.42987656       0.42167494      -0.44358667 </v>
   <v>      -0.32012224       0.32832369       0.49914189 </v>
   <v>      -0.32012224       0.32832369       0.16580856 </v>
   <v>       0.17987776       0.32832369       0.49914189 </v>
   <v>       0.17987776       0.32832369       0.16580856 </v>
   <v>      -0.50000000       0.00000000       0.05479365 </v>
   <v>       0.42987898       0.17167077      -0.33418932 </v>
   <v>       0.42987898       0.17167077      -0.00085599 </v>
   <v>      -0.42987898      -0.17167077       0.33247735 </v>
   <v>      -0.25000000       0.00000000       0.22145206 </v>
   <v>       0.25000000      -0.50000000       0.22145206 </v>
   <v>       0.07012344       0.07832506       0.22308000 </v>
   <v>       0.17987948       0.07832633       0.05641075 </v>
   <v>      -0.32012052       0.07832633       0.05641075 </v>
   <v>       0.07012102       0.32832923       0.33247735 </v>
   <v>       0.32012052      -0.07832633       0.05641075 </v>
   <v>       0.32012052       0.42167367       0.05641075 </v>
   <v>       0.25000000       0.25000000       0.00076332 </v>
   <v>       0.25000000       0.25000000      -0.33257001 </v>
   <v>      -0.42987898       0.32832923      -0.33418932 </v>
   <v>      -0.42987898       0.32832923      -0.00085599 </v>
   <v>      -0.17987776       0.17167631       0.49914189 </v>
   <v>      -0.17987776       0.17167631       0.16580856 </v>
   <v>      -0.25000000       0.00000000      -0.44521461 </v>
   <v>       0.25000000      -0.50000000      -0.44521461 </v>
   <v>       0.07012344       0.07832506      -0.44358667 </v>
   <v>      -0.50000000      -0.50000000       0.05479365 </v>
   <v>      -0.42987656      -0.42167494       0.22308000 </v>
   <v>      -0.50000000       0.00000000      -0.27853968 </v>
   <v>       0.25000000      -0.25000000       0.33409665 </v>
   <v>      -0.50000000      -0.25000000       0.16743769 </v>
   <v>       0.17987776      -0.17167631       0.49914189 </v>
   <v>       0.17987776      -0.17167631       0.16580856 </v>
   <v>      -0.32012224      -0.17167631       0.49914189 </v>
   <v>      -0.32012224      -0.17167631       0.16580856 </v>
   <v>      -0.50000000      -0.25000000      -0.49922898 </v>
   <v>      -0.17987948       0.42167367       0.38974408 </v>
   <v>      -0.17987948      -0.07832633       0.38974408 </v>
   <v>       0.00000000       0.00000000       0.38812698 </v>
   <v>      -0.25000000      -0.50000000       0.22145206 </v>
   <v>       0.00000000       0.25000000       0.16743769 </v>
   <v>       0.00000000       0.25000000      -0.49922898 </v>
   <v>      -0.32012052      -0.42167367       0.38974408 </v>
   <v>       0.17987948      -0.42167367       0.38974408 </v>
   <v>      -0.25000000       0.25000000       0.00076332 </v>
   <v>      -0.25000000       0.25000000      -0.33257001 </v>
   <v>      -0.42987656      -0.42167494      -0.44358667 </v>
   <v>       0.17987948       0.07832633      -0.27692259 </v>
   <v>      -0.32012052       0.07832633      -0.27692259 </v>
   <v>       0.32012052      -0.07832633      -0.27692259 </v>
   <v>       0.32012052       0.42167367      -0.27692259 </v>
   <v>      -0.42987656       0.07832506      -0.11025334 </v>
   <v>       0.42987898      -0.32832923       0.33247735 </v>
   <v>       0.07012102      -0.17167077       0.33247735 </v>
   <v>      -0.07012102       0.17167077       0.33247735 </v>
   <v>      -0.42987898      -0.17167077      -0.33418932 </v>
   <v>      -0.42987898      -0.17167077      -0.00085599 </v>
   <v>      -0.25000000      -0.50000000      -0.44521461 </v>
   <v>       0.42987656      -0.07832506      -0.11025334 </v>
   <v>       0.42987656       0.42167494      -0.11025334 </v>
   <v>      -0.50000000      -0.50000000      -0.27853968 </v>
   <v>       0.07012102       0.32832923      -0.33418932 </v>
   <v>       0.07012102       0.32832923      -0.00085599 </v>
   <v>       0.25000000       0.00000000      -0.11188127 </v>
   <v>      -0.25000000      -0.25000000       0.33409665 </v>
   <v>      -0.50000000       0.25000000      -0.16589565 </v>
   <v>       0.32012224       0.17167631      -0.16752478 </v>
   <v>       0.32012224      -0.32832369       0.49914189 </v>
   <v>       0.32012224      -0.32832369       0.16580856 </v>
   <v>       0.00000000      -0.50000000       0.38812698 </v>
   <v>      -0.17987948       0.42167367       0.05641075 </v>
   <v>      -0.17987948      -0.07832633       0.05641075 </v>
   <v>       0.00000000       0.00000000       0.05479365 </v>
   <v>       0.07012344      -0.42167494       0.22308000 </v>
   <v>      -0.32012052      -0.42167367       0.05641075 </v>
   <v>       0.17987948      -0.42167367       0.05641075 </v>
   <v>       0.25000000      -0.25000000       0.00076332 </v>
   <v>      -0.07012344       0.42167494       0.22308000 </v>
   <v>      -0.07012344      -0.07832506       0.22308000 </v>
   <v>       0.25000000      -0.25000000      -0.33257001 </v>
   <v>       0.07012344      -0.42167494      -0.44358667 </v>
   <v>      -0.25000000       0.00000000      -0.11188127 </v>
   <v>       0.07012344       0.07832506      -0.11025334 </v>
   <v>       0.25000000      -0.50000000      -0.11188127 </v>
   <v>      -0.32012224       0.32832369      -0.16752478 </v>
   <v>       0.17987776       0.32832369      -0.16752478 </v>
   <v>       0.42987898      -0.32832923      -0.33418932 </v>
   <v>       0.42987898      -0.32832923      -0.00085599 </v>
   <v>       0.07012102      -0.17167077      -0.33418932 </v>
   <v>       0.07012102      -0.17167077      -0.00085599 </v>
   <v>      -0.07012344       0.42167494      -0.44358667 </v>
   <v>      -0.07012344      -0.07832506      -0.44358667 </v>
   <v>      -0.07012102       0.17167077      -0.33418932 </v>
   <v>      -0.07012102       0.17167077      -0.00085599 </v>
   <v>       0.00000000      -0.50000000       0.05479365 </v>
   <v>       0.00000000       0.00000000      -0.27853968 </v>
   <v>      -0.17987948       0.42167367      -0.27692259 </v>
   <v>      -0.17987948      -0.07832633      -0.27692259 </v>
   <v>       0.00000000      -0.25000000       0.16743769 </v>
   <v>      -0.32012052      -0.42167367      -0.27692259 </v>
   <v>       0.17987948      -0.42167367      -0.27692259 </v>
   <v>       0.00000000      -0.25000000      -0.49922898 </v>
   <v>      -0.42987656      -0.42167494      -0.11025334 </v>
   <v>      -0.25000000      -0.25000000       0.00076332 </v>
   <v>      -0.25000000      -0.25000000      -0.33257001 </v>
   <v>      -0.25000000      -0.50000000      -0.11188127 </v>
   <v>      -0.17987776       0.17167631      -0.16752478 </v>
   <v>      -0.17987776      -0.32832369       0.49914189 </v>
   <v>      -0.17987776      -0.32832369       0.16580856 </v>
   <v>      -0.50000000      -0.25000000      -0.16589565 </v>
   <v>       0.17987776      -0.17167631      -0.16752478 </v>
   <v>      -0.32012224      -0.17167631      -0.16752478 </v>
   <v>       0.00000000      -0.50000000      -0.27853968 </v>
   <v>       0.00000000       0.25000000      -0.16589565 </v>
   <v>      -0.07012102      -0.32832923       0.33247735 </v>
   <v>       0.07012344      -0.42167494      -0.11025334 </v>
   <v>      -0.07012344       0.42167494      -0.11025334 </v>
   <v>      -0.07012344      -0.07832506      -0.11025334 </v>
   <v>       0.32012224      -0.32832369      -0.16752478 </v>
   <v>      -0.07012102      -0.32832923      -0.33418932 </v>
   <v>      -0.07012102      -0.32832923      -0.00085599 </v>
   <v>       0.00000000      -0.25000000      -0.16589565 </v>
   <v>      -0.17987776      -0.32832369      -0.16752478 </v>
  </varray>
 </structure>
 <varray name="primitive_index" >
  <v type="int" >        1 </v>
  <v type="int" >      102 </v>
  <v type="int" >      137 </v>
  <v type="int" >      122 </v>
  <v type="int" >       86 </v>
  <v type="int" >      126 </v>
  <v type="int" >       65 </v>
  <v type="int" >       61 </v>
  <v type="int" >       14 </v>
  <v type="int" >       75 </v>
  <v type="int" >       73 </v>
  <v type="int" >      109 </v>
  <v type="int" >       41 </v>
  <v type="int" >       42 </v>
  <v type="int" >       31 </v>
  <v type="int" >       29 </v>
  <v type="int" >       90 </v>
  <v type="int" >      138 </v>
  <v type="int" >      104 </v>
  <v type="int" >      113 </v>
  <v type="int" >       79 </v>
  <v type="int" >       77 </v>
  <v type="int" >       54 </v>
  <v type="int" >       50 </v>
  <v type="int" >       53 </v>
  <v type="int" >       49 </v>
  <v type="int" >       98 </v>
  <v type="int" >        5 </v>
  <v type="int" >        9 </v>
  <v type="int" >       16 </v>
  <v type="int" >      110 </v>
  <v type="int" >      111 </v>
  <v type="int" >       85 </v>
  <v type="int" >       37 </v>
  <v type="int" >       38 </v>
  <v type="int" >       13 </v>
  <v type="int" >       27 </v>
  <v type="int" >       25 </v>
  <v type="int" >      133 </v>
  <v type="int" >      141 </v>
  <v type="int" >       18 </v>
  <v type="int" >       22 </v>
  <v type="int" >       66 </v>
  <v type="int" >       62 </v>
  <v type="int" >      114 </v>
  <v type="int" >      115 </v>
  <v type="int" >       89 </v>
  <v type="int" >      100 </v>
  <v type="int" >       88 </v>
  <v type="int" >      106 </v>
  <v type="int" >      139 </v>
  <v type="int" >      124 </v>
  <v type="int" >       55 </v>
  <v type="int" >       51 </v>
  <v type="int" >       56 </v>
  <v type="int" >       52 </v>
  <v type="int" >      128 </v>
  <v type="int" >       30 </v>
  <v type="int" >       32 </v>
  <v type="int" >      101 </v>
  <v type="int" >      112 </v>
  <v type="int" >      121 </v>
  <v type="int" >      125 </v>
  <v type="int" >       44 </v>
  <v type="int" >       43 </v>
  <v type="int" >      134 </v>
  <v type="int" >      142 </v>
  <v type="int" >       92 </v>
  <v type="int" >       45 </v>
  <v type="int" >       46 </v>
  <v type="int" >       35 </v>
  <v type="int" >       33 </v>
  <v type="int" >       94 </v>
  <v type="int" >        3 </v>
  <v type="int" >       15 </v>
  <v type="int" >        2 </v>
  <v type="int" >       20 </v>
  <v type="int" >       24 </v>
  <v type="int" >      116 </v>
  <v type="int" >       83 </v>
  <v type="int" >       81 </v>
  <v type="int" >      108 </v>
  <v type="int" >       17 </v>
  <v type="int" >       21 </v>
  <v type="int" >      117 </v>
  <v type="int" >      140 </v>
  <v type="int" >      130 </v>
  <v type="int" >       69 </v>
  <v type="int" >       67 </v>
  <v type="int" >       63 </v>
  <v type="int" >      103 </v>
  <v type="int" >       26 </v>
  <v type="int" >       28 </v>
  <v type="int" >       97 </v>
  <v type="int" >       87 </v>
  <v type="int" >       40 </v>
  <v type="int" >       39 </v>
  <v type="int" >      135 </v>
  <v type="int" >       74 </v>
  <v type="int" >       76 </v>
  <v type="int" >      143 </v>
  <v type="int" >       91 </v>
  <v type="int" >      118 </v>
  <v type="int" >       93 </v>
  <v type="int" >      119 </v>
  <v type="int" >       58 </v>
  <v type="int" >       57 </v>
  <v type="int" >        7 </v>
  <v type="int" >       11 </v>
  <v type="int" >       19 </v>
  <v type="int" >       23 </v>
  <v type="int" >       78 </v>
  <v type="int" >       80 </v>
  <v type="int" >        6 </v>
  <v type="int" >       10 </v>
  <v type="int" >       99 </v>
  <v type="int" >      105 </v>
  <v type="int" >       34 </v>
  <v type="int" >       36 </v>
  <v type="int" >      123 </v>
  <v type="int" >       48 </v>
  <v type="int" >       47 </v>
  <v type="int" >      127 </v>
  <v type="int" >       96 </v>
  <v type="int" >      136 </v>
  <v type="int" >      144 </v>
  <v type="int" >      120 </v>
  <v type="int" >       70 </v>
  <v type="int" >       68 </v>
  <v type="int" >       64 </v>
  <v type="int" >      132 </v>
  <v type="int" >       59 </v>
  <v type="int" >       60 </v>
  <v type="int" >      107 </v>
  <v type="int" >      129 </v>
  <v type="int" >        4 </v>
  <v type="int" >       95 </v>
  <v type="int" >       82 </v>
  <v type="int" >       84 </v>
  <v type="int" >       71 </v>
  <v type="int" >        8 </v>
  <v type="int" >       12 </v>
  <v type="int" >      131 </v>
  <v type="int" >       72 </v>
 </varray>
 <kpoints>
  <generation param="Gamma">
   <v type="int" name="divisions">       2        2        2 </v>
   <v name="usershift">      0.00000000       0.00000000       0.00000000 </v>
   <v name="genvec1">      0.50000000       0.00000000       0.00000000 </v>
   <v name="genvec2">      0.00000000       0.50000000       0.00000000 </v>
   <v name="genvec3">      0.00000000       0.00000000       0.50000000 </v>
   <v name="shift">      0.00000000       0.00000000       0.00000000 </v>
  </generation>
  <varray name="kpointlist" >
   <v>       0.00000000       0.00000000       0.00000000 </v>
   <v>       0.50000000      -0.00000000       0.00000000 </v>
   <v>       0.00000000       0.50000000       0.00000000 </v>
   <v>       0.50000000       0.50000000       0.00000000 </v>
   <v>       0.00000000       0.00000000       0.50000000 </v>
   <v>       0.50000000      -0.00000000       0.50000000 </v>
   <v>       0.00000000       0.50000000       0.50000000 </v>
   <v>       0.50000000       0.50000000       0.50000000 </v>
  </varray>
  <varray name="weights" >
   <v>       0.12500000 </v>
   <v>       0.12500000 </v>
   <v>       0.12500000 </v>
   <v>       0.12500000 </v>
   <v>       0.12500000 </v>
   <v>       0.12500000 </v>
   <v>       0.12500000 </v>
   <v>       0.12500000 </v>
  </varray>
 </kpoints>
 <parameters>
  <separator name="general" >
   <i type="string" name="SYSTEM">unknown system</i>
   <i type="logical" name="LCOMPAT"> F  </i>
  </separator>
  <separator name="electronic" >
   <i type="string" name="PREC">accura</i>
   <i name="ENMAX">    650.00000000</i>
   <i name="ENAUG">    446.84200000</i>
   <i name="EDIFF">      0.00000001</i>
   <i type="int" name="IALGO">    38</i>
   <i type="int" name="IWAVPR">    10</i>
   <i type="int" name="NBANDS">   806</i>
   <i name="NELECT">   1344.00000000</i>
   <i type="int" name="TURBO">     0</i>
   <i type="int" name="IRESTART">     0</i>
   <i type="int" name="NREBOOT">     0</i>
   <i type="int" name="NMIN">     0</i>
   <i name="EREF">      0.00000000</i>
   <separator name="electronic smearing" >
    <i type="int" name="ISMEAR">     0</i>
    <i name="SIGMA">      0.05000000</i>
    <i name="KSPACING">      0.50000000</i>
    <i type="logical" name="KGAMMA"> T  </i>
   </separator>
   <separator name="electronic projectors" >
    <i type="logical" name="LREAL"> F  </i>
    <v name="ROPT">      0.00000000      0.00000000</v>
    <i type="int" name="LMAXPAW">  -100</i>
    <i type="int" name="LMAXMIX">     2</i>
    <i type="logical" name="NLSPLINE"> F  </i>
   </separator>
   <separator name="electronic startup" >
    <i type="int" name="ISTART">     0</i>
    <i type="int" name="ICHARG">     2</i>
    <i type="int" name="INIWAV">     1</i>
   </separator>
   <separator name="electronic spin" >
    <i type="int" name="ISPIN">     1</i>
    <i type="logical" name="LNONCOLLINEAR"> F  </i>
    <v name="MAGMOM">      1.00000000      1.00000000      1.00000000      1.00000000      1.00000000      1.00000000      1.00000000      1.00000000      1.00000000      1.00000000      1.00000000      1.00000000      1.00000000      1.00000000      1.00000000      1.00000000      1.00000000      1.00000000      1.00000000      1.00000000
      1.00000000      1.00000000      1.00000000      1.00000000      1.00000000      1.00000000      1.00000000      1.00000000      1.00000000      1.00000000      1.00000000      1.00000000      1.00000000      1.00000000      1.00000000      1.00000000      1.00000000      1.00000000      1.00000000      1.00000000
      1.00000000      1.00000000      1.00000000      1.00000000      1.00000000      1.00000000      1.00000000      1.00000000      1.00000000      1.00000000      1.00000000      1.00000000      1.00000000      1.00000000      1.00000000      1.00000000      1.00000000      1.00000000      1.00000000      1.00000000
      1.00000000      1.00000000      1.00000000      1.00000000      1.00000000      1.00000000      1.00000000      1.00000000      1.00000000      1.00000000      1.00000000      1.00000000      1.00000000      1.00000000      1.00000000      1.00000000      1.00000000      1.00000000      1.00000000      1.00000000
      1.00000000      1.00000000      1.00000000      1.00000000      1.00000000      1.00000000      1.00000000      1.00000000      1.00000000      1.00000000      1.00000000      1.00000000      1.00000000      1.00000000      1.00000000      1.00000000      1.00000000      1.00000000      1.00000000      1.00000000
      1.00000000      1.00000000      1.00000000      1.00000000      1.00000000      1.00000000      1.00000000      1.00000000      1.00000000      1.00000000      1.00000000      1.00000000      1.00000000      1.00000000      1.00000000      1.00000000      1.00000000      1.00000000      1.00000000      1.00000000
      1.00000000      1.00000000      1.00000000      1.00000000      1.00000000      1.00000000      1.00000000      1.00000000      1.00000000      1.00000000      1.00000000      1.00000000      1.00000000      1.00000000      1.00000000      1.00000000      1.00000000      1.00000000      1.00000000      1.00000000
      1.00000000      1.00000000      1.00000000      1.00000000</v>
    <i name="NUPDOWN">     -1.00000000</i>
    <i type="logical" name="LSORBIT"> F  </i>
    <v name="SAXIS">      0.00000000      0.00000000      1.00000000</v>
    <i type="logical" name="LSPIRAL"> F  </i>
    <v name="QSPIRAL">      0.00000000      0.00000000      0.00000000</v>
    <i type="logical" name="LZEROZ"> F  </i>
   </separator>
   <separator name="electronic exchange-correlation" >
    <i type="logical" name="LASPH"> T  </i>
    <i type="logical" name="LMETAGGA"> F  </i>
   </separator>
   <separator name="electronic convergence" >
    <i type="int" name="NELM">   200</i>
    <i type="int" name="NELMDL">    -5</i>
    <i type="int" name="NELMIN">     8</i>
    <i name="ENINI">    650.00000000</i>
    <separator name="electronic convergence detail" >
     <i type="logical" name="LDIAG"> T  </i>
     <i type="logical" name="LSUBROT"> F  </i>
     <i name="WEIMIN">      0.00000000</i>
     <i name="EBREAK">      0.00000000</i>
     <i name="DEPER">      0.30000000</i>
     <i type="int" name="NRMM">     4</i>
     <i name="TIME">      0.40000000</i>
    </separator>
   </separator>
   <separator name="electronic mixer" >
    <i name="AMIX">      0.40000000</i>
    <i name="BMIX">      1.00000000</i>
    <i name="AMIN">      0.10000000</i>
    <i name="AMIX_MAG">      1.60000000</i>
    <i name="BMIX_MAG">      1.00000000</i>
    <separator name="electronic mixer details" >
     <i type="int" name="IMIX">     4</i>
     <i type="logical" name="MIXFIRST"> F  </i>
     <i type="int" name="MAXMIX">   -45</i>
     <i name="WC">    100.00000000</i>
     <i type="int" name="INIMIX">     1</i>
     <i type="int" name="MIXPRE">     1</i>
     <i type="int" name="MREMOVE">     5</i>
    </separator>
   </separator>
   <separator name="electronic dipolcorrection" >
    <i type="logical" name="LDIPOL"> F  </i>
    <i type="logical" name="LMONO"> F  </i>
    <i type="int" name="IDIPOL">     0</i>
    <i name="EPSILON">      1.00000000</i>
    <v name="DIPOL">   -100.00000000   -100.00000000   -100.00000000</v>
    <i name="EFIELD">      0.00000000</i>
   </separator>
  </separator>
  <separator name="grids" >
   <i type="int" name="NGX">   120</i>
   <i type="int" name="NGY">   120</i>
   <i type="int" name="NGZ">   126</i>
   <i type="int" name="NGXF">   240</i>
   <i type="int" name="NGYF">   240</i>
   <i type="int" name="NGZF">   252</i>
   <i type="logical" name="ADDGRID"> T  </i>
  </separator>
  <separator name="ionic" >
   <i type="int" name="NSW">     0</i>
   <i type="int" name="IBRION">    -1</i>
   <i type="int" name="MDALGO">     0</i>
   <i type="int" name="ISIF">     3</i>
   <i name="PSTRESS">      0.00000000</i>
   <i name="EDIFFG">      0.00000010</i>
   <i type="int" name="NFREE">     0</i>
   <i name="POTIM">      0.50000000</i>
   <i name="SMASS">     -3.00000000</i>
   <i name="SCALEE">      1.00000000</i>
  </separator>
  <separator name="ionic md" >
   <i name="TEBEG">      0.00010000</i>
   <i name="TEEND">      0.00010000</i>
   <i type="int" name="NBLOCK">     1</i>
   <i type="int" name="KBLOCK">     1</i>
   <i type="int" name="NPACO">   256</i>
   <i name="APACO">     16.00000000</i>
  </separator>
  <separator name="symmetry" >
   <i type="int" name="ISYM">     0</i>
   <i name="SYMPREC">      0.00001000</i>
  </separator>
  <separator name="dos" >
   <i type="int" name="LORBIT">     0</i>
   <v name="RWIGS">     -1.00000000     -1.00000000</v>
   <i type="int" name="NEDOS">   301</i>
   <i name="EMIN">     10.00000000</i>
   <i name="EMAX">    -10.00000000</i>
   <i name="EFERMI">      0.00000000</i>
  </separator>
  <separator name="writing" >
   <i type="int" name="NWRITE">     2</i>
   <i type="logical" name="LWAVE"> F  </i>
   <i type="logical" name="LDOWNSAMPLE"> F  </i>
   <i type="logical" name="LCHARG"> T  </i>
   <i type="logical" name="LPARD"> F  </i>
   <i type="logical" name="LVTOT"> F  </i>
   <i type="logical" name="LVHAR"> F  </i>
   <i type="logical" name="LELF"> F  </i>
   <i type="logical" name="LOPTICS"> F  </i>
   <v name="STM">      0.00000000      0.00000000      0.00000000      0.00000000      0.00000000      0.00000000      0.00000000</v>
  </separator>
  <separator name="performance" >
   <i type="int" name="NPAR">     1</i>
   <i type="int" name="NSIM">     4</i>
   <i type="int" name="NBLK">    -1</i>
   <i type="logical" name="LPLANE"> T  </i>
   <i type="logical" name="LSCALAPACK"> T  </i>
   <i type="logical" name="LSCAAWARE"> F  </i>
   <i type="logical" name="LSCALU"> F  </i>
   <i type="logical" name="LASYNC"> F  </i>
   <i type="logical" name="LORBITALREAL"> F  </i>
  </separator>
  <separator name="miscellaneous" >
   <i type="int" name="IDIOT">     3</i>
   <i type="int" name="ISPECIAL">     0</i>
   <i type="logical" name="LMUSIC"> F  </i>
   <v name="POMASS">    107.86800000     78.96000000</v>
   <v name="DARWINR">      0.00000000      0.00000000</v>
   <v name="DARWINV">      1.00000000      1.00000000</v>
   <i type="logical" name="LCORR"> T  </i>
  </separator>
  <i type="logical" name="GGA_COMPAT"> T  </i>
  <i type="logical" name="LBERRY"> F  </i>
  <i type="int" name="ICORELEVEL">     0</i>
  <i type="logical" name="LDAU"> F  </i>
  <i type="int" name="I_CONSTRAINED_M">     0</i>
  <separator name="electronic exchange-correlation" >
   <i type="string" name="GGA">PS</i>
   <i type="int" name="VOSKOWN">     0</i>
   <i type="logical" name="LHFCALC"> F  </i>
   <i type="string" name="PRECFOCK"></i>
   <i type="logical" name="LSYMGRAD"> F  </i>
   <i type="logical" name="LHFONE"> F  </i>
   <i type="logical" name="LRHFCALC"> F  </i>
   <i type="logical" name="LTHOMAS"> F  </i>
   <i type="logical" name="LMODELHF"> F  </i>
   <i name="ENCUT4O">     -1.00000000</i>
   <i type="int" name="EXXOEP">     0</i>
   <i type="int" name="FOURORBIT">     0</i>
   <i name="AEXX">      0.00000000</i>
   <i name="HFALPHA">      0.00000000</i>
   <i name="MCALPHA">      0.00000000</i>
   <i name="ALDAX">      1.00000000</i>
   <i name="AGGAX">      1.00000000</i>
   <i name="ALDAC">      1.00000000</i>
   <i name="AGGAC">      1.00000000</i>
   <i type="int" name="NKREDX">     1</i>
   <i type="int" name="NKREDY">     1</i>
   <i type="int" name="NKREDZ">     1</i>
   <i type="logical" name="SHIFTRED"> F  </i>
   <i type="logical" name="ODDONLY"> F  </i>
   <i type="logical" name="EVENONLY"> F  </i>
   <i type="int" name="LMAXFOCK">     0</i>
   <i type="int" name="NMAXFOCKAE">     0</i>
   <i type="logical" name="LFOCKAEDFT"> F  </i>
   <i name="HFSCREEN">      0.00000000</i>
   <i name="HFSCREENC">      0.00000000</i>
   <i type="int" name="NBANDSGWLOW">     0</i>
  </separator>
  <separator name="vdW DFT" >
   <i type="logical" name="LUSE_VDW"> F  </i>
   <i name="Zab_VDW">     -0.84910000</i>
   <i name="PARAM1">      0.12340000</i>
   <i name="PARAM2">      1.00000000</i>
   <i name="PARAM3">      0.00000000</i>
  </separator>
  <separator name="model GW" >
   <i type="int" name="MODEL_GW">     0</i>
   <i name="MODEL_EPS0">     11.69349825</i>
   <i name="MODEL_ALPHA">      1.00000000</i>
  </separator>
  <separator name="linear response parameters" >
   <i type="logical" name="LEPSILON"> F  </i>
   <i type="logical" name="LRPA"> F  </i>
   <i type="logical" name="LNABLA"> F  </i>
   <i type="logical" name="LVEL"> F  </i>
   <i type="int" name="KINTER">     0</i>
   <i name="CSHIFT">      0.10000000</i>
   <i name="OMEGAMAX">     -1.00000000</i>
   <i name="DEG_THRESHOLD">      0.00200000</i>
   <i name="RTIME">     -0.10000000</i>
   <i name="WPLASMAI">      0.00000000</i>
   <v name="DFIELD">      0.00000000      0.00000000      0.00000000</v>
   <v name="WPLASMA">      0.00000000      0.00000000      0.00000000      0.00000000      0.00000000      0.00000000      0.00000000      0.00000000      0.00000000</v>
  </separator>
  <separator name="orbital magnetization" >
   <i type="logical" name="NUCIND"> F  </i>
   <v name="MAGPOS">      0.00000000      0.00000000      0.00000000</v>
   <i type="logical" name="LNICSALL"> T  </i>
   <i type="logical" name="ORBITALMAG"> F  </i>
   <i type="logical" name="LMAGBLOCH"> F  </i>
   <i type="logical" name="LCHIMAG"> F  </i>
   <i type="logical" name="LGAUGE"> T  </i>
   <i type="int" name="MAGATOM">     0</i>
   <v name="MAGDIPOL">      0.00000000      0.00000000      0.00000000</v>
   <v name="AVECCONST">      0.00000000      0.00000000      0.00000000</v>
  </separator>
  <separator name="response functions" >
   <i type="logical" name="LADDER"> F  </i>
   <i type="logical" name="LRPAFORCE"> F  </i>
   <i type="logical" name="LFXC"> F  </i>
   <i type="logical" name="LHARTREE"> T  </i>
   <i type="int" name="IBSE">     0</i>
   <v type="int" name="KPOINT">    -1     0     0     0</v>
   <i type="logical" name="LTCTE"> F  </i>
   <i type="logical" name="LTETE"> F  </i>
   <i type="logical" name="LTRIPLET"> F  </i>
   <i type="logical" name="LFXCEPS"> F  </i>
   <i type="logical" name="LFXHEG"> F  </i>
   <i type="int" name="NATURALO">     2</i>
   <i type="logical" name="L2ORDER"> F  </i>
   <i type="logical" name="LMP2LT"> F  </i>
   <i type="logical" name="LUSEW"> F  </i>
   <i name="ENCUTGW">     -2.00000000</i>
   <i name="ENCUTGWSOFT">     -2.00000000</i>
   <i name="ENCUTLF">     -1.00000000</i>
   <i type="int" name="LMAXMP2">    -1</i>
   <i name="SCISSOR">      0.00000000</i>
   <i type="int" name="NOMEGA">     0</i>
   <i type="int" name="NOMEGAR">     0</i>
   <i type="int" name="NBANDSGW">    -1</i>
   <i type="int" name="NBANDSO">    -1</i>
   <i type="int" name="NBANDSV">    -1</i>
   <i type="int" name="NELM">   200</i>
   <i type="int" name="NELMHF">     1</i>
   <i type="int" name="DIM">     3</i>
   <i type="int" name="ANTIRES">     0</i>
   <i name="OMEGAMAX">    -30.00000000</i>
   <i name="OMEGAMIN">    -30.00000000</i>
   <i name="OMEGATL">   -200.00000000</i>
   <i type="int" name="OMEGAGRID">   140</i>
   <i name="CSHIFT">     -0.10000000</i>
   <i type="logical" name="SELFENERGY"> F  </i>
   <i type="logical" name="LSPECTRAL"> F  </i>
   <i type="logical" name="LSPECTRALGW"> F  </i>
   <i type="logical" name="LSINGLES"> F  </i>
   <i type="logical" name="LFERMIGW"> F  </i>
   <i type="logical" name="ODDONLYGW"> F  </i>
   <i type="logical" name="EVENONLYGW"> F  </i>
   <i type="int" name="NKREDLFX">     1</i>
   <i type="int" name="NKREDLFY">     1</i>
   <i type="int" name="NKREDLFZ">     1</i>
   <i type="int" name="MAXMEM">  2800</i>
   <i type="int" name="TELESCOPE">     0</i>
   <i type="int" name="TAUPAR">     1</i>
   <i type="int" name="OMEGAPAR">    -1</i>
   <i name="LAMBDA">      1.00000000</i>
  </separator>
  <separator name="External order field" >
   <i name="OFIELD_KAPPA">      0.00000000</i>
   <v name="OFIELD_K">      0.00000000      0.00000000      0.00000000</v>
   <i name="OFIELD_Q6_NEAR">      0.00000000</i>
   <i name="OFIELD_Q6_FAR">      0.00000000</i>
   <i name="OFIELD_A">      0.00000000</i>
  </separator>
 </parameters>
 <atominfo>
  <atoms>     144 </atoms>
  <types>       2 </types>
  <array name="atoms" >
   <dimension dim="1">ion</dimension>
   <field type="string">element</field>
   <field type="int">atomtype</field>
   <set>
    <rc><c>Ag</c><c>   1</c></rc>
    <rc><c>Ag</c><c>   1</c></rc>
    <rc><c>Ag</c><c>   1</c></rc>
    <rc><c>Ag</c><c>   1</c></rc>
    <rc><c>Ag</c><c>   1</c></rc>
    <rc><c>Ag</c><c>   1</c></rc>
    <rc><c>Ag</c><c>   1</c></rc>
    <rc><c>Ag</c><c>   1</c></rc>
    <rc><c>Ag</c><c>   1</c></rc>
    <rc><c>Ag</c><c>   1</c></rc>
    <rc><c>Ag</c><c>   1</c></rc>
    <rc><c>Ag</c><c>   1</c></rc>
    <rc><c>Ag</c><c>   1</c></rc>
    <rc><c>Ag</c><c>   1</c></rc>
    <rc><c>Ag</c><c>   1</c></rc>
    <rc><c>Ag</c><c>   1</c></rc>
    <rc><c>Ag</c><c>   1</c></rc>
    <rc><c>Ag</c><c>   1</c></rc>
    <rc><c>Ag</c><c>   1</c></rc>
    <rc><c>Ag</c><c>   1</c></rc>
    <rc><c>Ag</c><c>   1</c></rc>
    <rc><c>Ag</c><c>   1</c></rc>
    <rc><c>Ag</c><c>   1</c></rc>
    <rc><c>Ag</c><c>   1</c></rc>
    <rc><c>Ag</c><c>   1</c></rc>
    <rc><c>Ag</c><c>   1</c></rc>
    <rc><c>Ag</c><c>   1</c></rc>
    <rc><c>Ag</c><c>   1</c></rc>
    <rc><c>Ag</c><c>   1</c></rc>
    <rc><c>Ag</c><c>   1</c></rc>
    <rc><c>Ag</c><c>   1</c></rc>
    <rc><c>Ag</c><c>   1</c></rc>
    <rc><c>Ag</c><c>   1</c></rc>
    <rc><c>Ag</c><c>   1</c></rc>
    <rc><c>Ag</c><c>   1</c></rc>
    <rc><c>Ag</c><c>   1</c></rc>
    <rc><c>Ag</c><c>   1</c></rc>
    <rc><c>Ag</c><c>   1</c></rc>
    <rc><c>Ag</c><c>   1</c></rc>
    <rc><c>Ag</c><c>   1</c></rc>
    <rc><c>Ag</c><c>   1</c></rc>
    <rc><c>Ag</c><c>   1</c></rc>
    <rc><c>Ag</c><c>   1</c></rc>
    <rc><c>Ag</c><c>   1</c></rc>
    <rc><c>Ag</c><c>   1</c></rc>
    <rc><c>Ag</c><c>   1</c></rc>
    <rc><c>Ag</c><c>   1</c></rc>
    <rc><c>Ag</c><c>   1</c></rc>
    <rc><c>Ag</c><c>   1</c></rc>
    <rc><c>Ag</c><c>   1</c></rc>
    <rc><c>Ag</c><c>   1</c></rc>
    <rc><c>Ag</c><c>   1</c></rc>
    <rc><c>Ag</c><c>   1</c></rc>
    <rc><c>Ag</c><c>   1</c></rc>
    <rc><c>Ag</c><c>   1</c></rc>
    <rc><c>Ag</c><c>   1</c></rc>
    <rc><c>Ag</c><c>   1</c></rc>
    <rc><c>Ag</c><c>   1</c></rc>
    <rc><c>Ag</c><c>   1</c></rc>
    <rc><c>Ag</c><c>   1</c></rc>
    <rc><c>Ag</c><c>   1</c></rc>
    <rc><c>Ag</c><c>   1</c></rc>
    <rc><c>Ag</c><c>   1</c></rc>
    <rc><c>Ag</c><c>   1</c></rc>
    <rc><c>Ag</c><c>   1</c></rc>
    <rc><c>Ag</c><c>   1</c></rc>
    <rc><c>Ag</c><c>   1</c></rc>
    <rc><c>Ag</c><c>   1</c></rc>
    <rc><c>Ag</c><c>   1</c></rc>
    <rc><c>Ag</c><c>   1</c></rc>
    <rc><c>Ag</c><c>   1</c></rc>
    <rc><c>Ag</c><c>   1</c></rc>
    <rc><c>Ag</c><c>   1</c></rc>
    <rc><c>Ag</c><c>   1</c></rc>
    <rc><c>Ag</c><c>   1</c></rc>
    <rc><c>Ag</c><c>   1</c></rc>
    <rc><c>Ag</c><c>   1</c></rc>
    <rc><c>Ag</c><c>   1</c></rc>
    <rc><c>Ag</c><c>   1</c></rc>
    <rc><c>Ag</c><c>   1</c></rc>
    <rc><c>Ag</c><c>   1</c></rc>
    <rc><c>Ag</c><c>   1</c></rc>
    <rc><c>Ag</c><c>   1</c></rc>
    <rc><c>Ag</c><c>   1</c></rc>
    <rc><c>Ag</c><c>   1</c></rc>
    <rc><c>Ag</c><c>   1</c></rc>
    <rc><c>Ag</c><c>   1</c></rc>
    <rc><c>Ag</c><c>   1</c></rc>
    <rc><c>Ag</c><c>   1</c></rc>
    <rc><c>Ag</c><c>   1</c></rc>
    <rc><c>Ag</c><c>   1</c></rc>
    <rc><c>Ag</c><c>   1</c></rc>
    <rc><c>Ag</c><c>   1</c></rc>
    <rc><c>Ag</c><c>   1</c></rc>
    <rc><c>Ag</c><c>   1</c></rc>
    <rc><c>Ag</c><c>   1</c></rc>
    <rc><c>Se</c><c>   2</c></rc>
    <rc><c>Se</c><c>   2</c></rc>
    <rc><c>Se</c><c>   2</c></rc>
    <rc><c>Se</c><c>   2</c></rc>
    <rc><c>Se</c><c>   2</c></rc>
    <rc><c>Se</c><c>   2</c></rc>
    <rc><c>Se</c><c>   2</c></rc>
    <rc><c>Se</c><c>   2</c></rc>
    <rc><c>Se</c><c>   2</c></rc>
    <rc><c>Se</c><c>   2</c></rc>
    <rc><c>Se</c><c>   2</c></rc>
    <rc><c>Se</c><c>   2</c></rc>
    <rc><c>Se</c><c>   2</c></rc>
    <rc><c>Se</c><c>   2</c></rc>
    <rc><c>Se</c><c>   2</c></rc>
    <rc><c>Se</c><c>   2</c></rc>
    <rc><c>Se</c><c>   2</c></rc>
    <rc><c>Se</c><c>   2</c></rc>
    <rc><c>Se</c><c>   2</c></rc>
    <rc><c>Se</c><c>   2</c></rc>
    <rc><c>Se</c><c>   2</c></rc>
    <rc><c>Se</c><c>   2</c></rc>
    <rc><c>Se</c><c>   2</c></rc>
    <rc><c>Se</c><c>   2</c></rc>
    <rc><c>Se</c><c>   2</c></rc>
    <rc><c>Se</c><c>   2</c></rc>
    <rc><c>Se</c><c>   2</c></rc>
    <rc><c>Se</c><c>   2</c></rc>
    <rc><c>Se</c><c>   2</c></rc>
    <rc><c>Se</c><c>   2</c></rc>
    <rc><c>Se</c><c>   2</c></rc>
    <rc><c>Se</c><c>   2</c></rc>
    <rc><c>Se</c><c>   2</c></rc>
    <rc><c>Se</c><c>   2</c></rc>
    <rc><c>Se</c><c>   2</c></rc>
    <rc><c>Se</c><c>   2</c></rc>
    <rc><c>Se</c><c>   2</c></rc>
    <rc><c>Se</c><c>   2</c></rc>
    <rc><c>Se</c><c>   2</c></rc>
    <rc><c>Se</c><c>   2</c></rc>
    <rc><c>Se</c><c>   2</c></rc>
    <rc><c>Se</c><c>   2</c></rc>
    <rc><c>Se</c><c>   2</c></rc>
    <rc><c>Se</c><c>   2</c></rc>
    <rc><c>Se</c><c>   2</c></rc>
    <rc><c>Se</c><c>   2</c></rc>
    <rc><c>Se</c><c>   2</c></rc>
    <rc><c>Se</c><c>   2</c></rc>
   </set>
  </array>
  <array name="atomtypes" >
   <dimension dim="1">type</dimension>
   <field type="int">atomspertype</field>
   <field type="string">element</field>
   <field>mass</field>
   <field>valence</field>
   <field type="string">pseudopotential</field>
   <set>
    <rc><c>  96</c><c>Ag</c><c>    107.86800000</c><c>     11.00000000</c><c>  PAW_PBE Ag 02Apr2005                  </c></rc>
    <rc><c>  48</c><c>Se</c><c>     78.96000000</c><c>      6.00000000</c><c>  PAW_PBE Se 06Sep2000                  </c></rc>
   </set>
  </array>
 </atominfo>
 <structure name="initialpos" >
  <crystal>
   <varray name="basis" >
    <v>      14.01039598       0.00139138       0.00000000 </v>
    <v>      -0.00150196      13.76691092       0.00000000 </v>
    <v>       0.00000000       0.00000000      14.55019386 </v>
   </varray>
   <i name="volume">   2806.43958022 </i>
   <varray name="rec_basis" >
    <v>       0.07137557       0.00000779       0.00000000 </v>
    <v>      -0.00000721       0.07263794       0.00000000 </v>
    <v>       0.00000000       0.00000000       0.06872761 </v>
   </varray>
  </crystal>
  <varray name="positions" >
   <v>       0.42987898       0.17167077       0.33247735 </v>
   <v>       0.92987898       0.17167077       0.33247735 </v>
   <v>       0.42987898       0.67167077       0.33247735 </v>
   <v>       0.92987898       0.67167077       0.33247735 </v>
   <v>       0.42987898       0.17167077       0.66581068 </v>
   <v>       0.92987898       0.17167077       0.66581068 </v>
   <v>       0.42987898       0.67167077       0.66581068 </v>
   <v>       0.92987898       0.67167077       0.66581068 </v>
   <v>       0.42987898       0.17167077       0.99914401 </v>
   <v>       0.92987898       0.17167077       0.99914401 </v>
   <v>       0.42987898       0.67167077       0.99914401 </v>
   <v>       0.92987898       0.67167077       0.99914401 </v>
   <v>       0.07012102       0.32832923       0.33247735 </v>
   <v>       0.57012102       0.32832923       0.33247735 </v>
   <v>       0.07012102       0.82832923       0.33247735 </v>
   <v>       0.57012102       0.82832923       0.33247735 </v>
   <v>       0.07012102       0.32832923       0.66581068 </v>
   <v>       0.57012102       0.32832923       0.66581068 </v>
   <v>       0.07012102       0.82832923       0.66581068 </v>
   <v>       0.57012102       0.82832923       0.66581068 </v>
   <v>       0.07012102       0.32832923       0.99914401 </v>
   <v>       0.57012102       0.32832923       0.99914401 </v>
   <v>       0.07012102       0.82832923       0.99914401 </v>
   <v>       0.57012102       0.82832923       0.99914401 </v>
   <v>       0.32012053       0.42167367       0.05641075 </v>
   <v>       0.82012053       0.42167367       0.05641075 </v>
   <v>       0.32012053       0.92167367       0.05641075 </v>
   <v>       0.82012053       0.92167367       0.05641075 </v>
   <v>       0.32012053       0.42167367       0.38974408 </v>
   <v>       0.82012053       0.42167367       0.38974408 </v>
   <v>       0.32012053       0.92167367       0.38974408 </v>
   <v>       0.82012053       0.92167367       0.38974408 </v>
   <v>       0.32012053       0.42167367       0.72307741 </v>
   <v>       0.82012053       0.42167367       0.72307741 </v>
   <v>       0.32012053       0.92167367       0.72307741 </v>
   <v>       0.82012053       0.92167367       0.72307741 </v>
   <v>       0.17987947       0.07832633       0.05641075 </v>
   <v>       0.67987947       0.07832633       0.05641075 </v>
   <v>       0.17987947       0.57832633       0.05641075 </v>
   <v>       0.67987947       0.57832633       0.05641075 </v>
   <v>       0.17987947       0.07832633       0.38974408 </v>
   <v>       0.67987947       0.07832633       0.38974408 </v>
   <v>       0.17987947       0.57832633       0.38974408 </v>
   <v>       0.67987947       0.57832633       0.38974408 </v>
   <v>       0.17987947       0.07832633       0.72307741 </v>
   <v>       0.67987947       0.07832633       0.72307741 </v>
   <v>       0.17987947       0.57832633       0.72307741 </v>
   <v>       0.67987947       0.57832633       0.72307741 </v>
   <v>       0.17987776       0.32832369       0.16580856 </v>
   <v>       0.67987776       0.32832369       0.16580856 </v>
   <v>       0.17987776       0.82832369       0.16580856 </v>
   <v>       0.67987776       0.82832369       0.16580856 </v>
   <v>       0.17987776       0.32832369       0.49914189 </v>
   <v>       0.67987776       0.32832369       0.49914189 </v>
   <v>       0.17987776       0.82832369       0.49914189 </v>
   <v>       0.67987776       0.82832369       0.49914189 </v>
   <v>       0.17987776       0.32832369       0.83247522 </v>
   <v>       0.67987776       0.32832369       0.83247522 </v>
   <v>       0.17987776       0.82832369       0.83247522 </v>
   <v>       0.67987776       0.82832369       0.83247522 </v>
   <v>       0.32012224       0.17167631       0.16580856 </v>
   <v>       0.82012224       0.17167631       0.16580856 </v>
   <v>       0.32012224       0.67167631       0.16580856 </v>
   <v>       0.82012224       0.67167631       0.16580856 </v>
   <v>       0.32012224       0.17167631       0.49914189 </v>
   <v>       0.82012224       0.17167631       0.49914189 </v>
   <v>       0.32012224       0.67167631       0.49914189 </v>
   <v>       0.82012224       0.67167631       0.49914189 </v>
   <v>       0.32012224       0.17167631       0.83247522 </v>
   <v>       0.82012224       0.17167631       0.83247522 </v>
   <v>       0.32012224       0.67167631       0.83247522 </v>
   <v>       0.82012224       0.67167631       0.83247522 </v>
   <v>       0.42987656       0.42167494       0.22308000 </v>
   <v>       0.92987656       0.42167494       0.22308000 </v>
   <v>       0.42987656       0.92167494       0.22308000 </v>
   <v>       0.92987656       0.92167494       0.22308000 </v>
   <v>       0.42987656       0.42167494       0.55641333 </v>
   <v>       0.92987656       0.42167494       0.55641333 </v>
   <v>       0.42987656       0.92167494       0.55641333 </v>
   <v>       0.92987656       0.92167494       0.55641333 </v>
   <v>       0.42987656       0.42167494       0.88974666 </v>
   <v>       0.92987656       0.42167494       0.88974666 </v>
   <v>       0.42987656       0.92167494       0.88974666 </v>
   <v>       0.92987656       0.92167494       0.88974666 </v>
   <v>       0.07012344       0.07832506       0.22308000 </v>
   <v>       0.57012344       0.07832506       0.22308000 </v>
   <v>       0.07012344       0.57832506       0.22308000 </v>
   <v>       0.57012344       0.57832506       0.22308000 </v>
   <v>       0.07012344       0.07832506       0.55641333 </v>
   <v>       0.57012344       0.07832506       0.55641333 </v>
   <v>       0.07012344       0.57832506       0.55641333 </v>
   <v>       0.57012344       0.57832506       0.55641333 </v>
   <v>       0.07012344       0.07832506       0.88974666 </v>
   <v>       0.57012344       0.07832506       0.88974666 </v>
   <v>       0.07012344       0.57832506       0.88974666 </v>
   <v>       0.57012344       0.57832506       0.88974666 </v>
   <v>       0.00000000       0.00000000       0.05479365 </v>
   <v>       0.50000000       0.00000000       0.05479365 </v>
   <v>       0.00000000       0.50000000       0.05479365 </v>
   <v>       0.50000000       0.50000000       0.05479365 </v>
   <v>       0.00000000       0.00000000       0.38812698 </v>
   <v>       0.50000000       0.00000000       0.38812698 </v>
   <v>       0.00000000       0.50000000       0.38812698 </v>
   <v>       0.50000000       0.50000000       0.38812698 </v>
   <v>       0.00000000       0.00000000       0.72146032 </v>
   <v>       0.50000000       0.00000000       0.72146032 </v>
   <v>       0.00000000       0.50000000       0.72146032 </v>
   <v>       0.50000000       0.50000000       0.72146032 </v>
   <v>       0.25000000       0.00072638       0.22145206 </v>
   <v>       0.75000000       0.00000000       0.22145206 </v>
   <v>       0.25000000       0.50000000       0.22145206 </v>
   <v>       0.75000000       0.50000000       0.22145206 </v>
   <v>       0.25000000       0.00000000       0.55478539 </v>
   <v>       0.75000000       0.00000000       0.55478539 </v>
   <v>       0.25000000       0.50000000       0.55478539 </v>
   <v>       0.75000000       0.50000000       0.55478539 </v>
   <v>       0.25000000       0.00000000       0.88811873 </v>
   <v>       0.75000000       0.00000000       0.88811873 </v>
   <v>       0.25000000       0.50000000       0.88811873 </v>
   <v>       0.75000000       0.50000000       0.88811873 </v>
   <v>       0.00000000       0.25000000       0.16743769 </v>
   <v>       0.50000000       0.25000000       0.16743769 </v>
   <v>       0.00000000       0.75000000       0.16743769 </v>
   <v>       0.50000000       0.75000000       0.16743769 </v>
   <v>       0.00000000       0.25000000       0.50077102 </v>
   <v>       0.50000000       0.25000000       0.50077102 </v>
   <v>       0.00000000       0.75000000       0.50077102 </v>
   <v>       0.50000000       0.75000000       0.50077102 </v>
   <v>       0.00000000       0.25000000       0.83410435 </v>
   <v>       0.50000000       0.25000000       0.83410435 </v>
   <v>       0.00000000       0.75000000       0.83410435 </v>
   <v>       0.50000000       0.75000000       0.83410435 </v>
   <v>       0.25000000       0.25000000       0.00076332 </v>
   <v>       0.75000000       0.25000000       0.00076332 </v>
   <v>       0.25000000       0.75000000       0.00076332 </v>
   <v>       0.75000000       0.75000000       0.00076332 </v>
   <v>       0.25000000       0.25000000       0.33409665 </v>
   <v>       0.75000000       0.25000000       0.33409665 </v>
   <v>       0.25000000       0.75000000       0.33409665 </v>
   <v>       0.75000000       0.75000000       0.33409665 </v>
   <v>       0.25000000       0.25000000       0.66742999 </v>
   <v>       0.75000000       0.25000000       0.66742999 </v>
   <v>       0.25000000       0.75000000       0.66742999 </v>
   <v>       0.75000000       0.75000000       0.66742999 </v>
  </varray>
 </structure>
 <calculation>
  <scstep>
   <time name="dav">  915.71  917.74</time>
   <time name="total">  919.20  921.26</time>
   <energy>
    <i name="alphaZ">   4890.97834259 </i>
    <i name="ewald"> -98843.16965134 </i>
    <i name="hartreedc"> -25789.10721756 </i>
    <i name="XCdc">   -889.86230871 </i>
    <i name="pawpsdc"> 106286.73805879 </i>
    <i name="pawaedc">-101298.59693205 </i>
    <i name="eentropy">     -0.04320674 </i>
    <i name="bandstr">  14366.15408094 </i>
    <i name="atom"> 111881.97810035 </i>
    <i name="e_fr_energy">  10605.06926627 </i>
    <i name="e_wo_entrp">  10605.11247301 </i>
    <i name="e_0_energy">  10605.09086964 </i>
   </energy>
  </scstep>
  <scstep>
   <time name="dav">  950.22  952.84</time>
   <time name="total">  950.23  952.85</time>
   <energy>
    <i name="e_fr_energy">    151.05547902 </i>
    <i name="e_wo_entrp">    151.06773238 </i>
    <i name="e_0_energy">    151.06160570 </i>
   </energy>
  </scstep>
  <scstep>
   <time name="dav"> 1006.10 1008.54</time>
   <time name="total"> 1006.11 1008.55</time>
   <energy>
    <i name="e_fr_energy">   -517.93689389 </i>
    <i name="e_wo_entrp">   -517.93077715 </i>
    <i name="e_0_energy">   -517.93383552 </i>
   </energy>
  </scstep>
  <scstep>
   <time name="dav">  969.79  972.25</time>
   <time name="total">  969.80  972.26</time>
   <energy>
    <i name="e_fr_energy">   -535.41602509 </i>
    <i name="e_wo_entrp">   -535.41056525 </i>
    <i name="e_0_energy">   -535.41329517 </i>
   </energy>
  </scstep>
  <scstep>
   <time name="dav">  976.53  978.94</time>
   <time name="total">  991.59  994.11</time>
   <energy>
    <i name="e_fr_energy">   -535.67090322 </i>
    <i name="e_wo_entrp">   -535.66543527 </i>
    <i name="e_0_energy">   -535.66816924 </i>
   </energy>
  </scstep>
  <scstep>
   <time name="dav">  953.44  955.69</time>
   <time name="total">  970.87  973.37</time>
   <energy>
    <i name="e_fr_energy">   -504.98347908 </i>
    <i name="e_wo_entrp">   -504.96799595 </i>
    <i name="e_0_energy">   -504.97573751 </i>
   </energy>
  </scstep>
  <scstep>
   <time name="dav">  955.42  957.87</time>
   <time name="total">  973.92  976.42</time>
   <energy>
    <i name="e_fr_energy">   -505.65743631 </i>
    <i name="e_wo_entrp">   -505.64167983 </i>
    <i name="e_0_energy">   -505.64955807 </i>
   </energy>
  </scstep>
  <scstep>
   <time name="dav">  969.12  971.62</time>
   <time name="total">  987.86  990.42</time>
   <energy>
    <i name="e_fr_energy">   -505.18186056 </i>
    <i name="e_wo_entrp">   -505.16725063 </i>
    <i name="e_0_energy">   -505.17455560 </i>
   </energy>
  </scstep>
  <scstep>
   <time name="dav">  953.10  955.61</time>
   <time name="total">  973.53  976.10</time>
   <energy>
    <i name="e_fr_energy">   -505.12619769 </i>
    <i name="e_wo_entrp">   -505.11097637 </i>
    <i name="e_0_energy">   -505.11858703 </i>
   </energy>
  </scstep>
  <scstep>
   <time name="dav">  954.34  956.58</time>
   <time name="total">  971.69  974.00</time>
   <energy>
    <i name="e_fr_energy">   -505.12832794 </i>
    <i name="e_wo_entrp">   -505.11304872 </i>
    <i name="e_0_energy">   -505.12068833 </i>
   </energy>
  </scstep>
  <scstep>
   <time name="dav">  968.82  971.26</time>
   <time name="total">  986.91  989.40</time>
   <energy>
    <i name="e_fr_energy">   -505.12820175 </i>
    <i name="e_wo_entrp">   -505.11299075 </i>
    <i name="e_0_energy">   -505.12059625 </i>
   </energy>
  </scstep>
  <scstep>
   <time name="dav">  972.30  974.95</time>
   <time name="total">  992.23  994.94</time>
   <energy>
    <i name="e_fr_energy">   -505.12815973 </i>
    <i name="e_wo_entrp">   -505.11292855 </i>
    <i name="e_0_energy">   -505.12054414 </i>
   </energy>
  </scstep>
  <scstep>
   <time name="dav"> 1016.87 1019.46</time>
   <time name="total"> 1034.70 1037.33</time>
   <energy>
    <i name="e_fr_energy">   -505.12815980 </i>
    <i name="e_wo_entrp">   -505.11293149 </i>
    <i name="e_0_energy">   -505.12054564 </i>
   </energy>
  </scstep>
  <scstep>
   <time name="dav">  965.23  967.76</time>
   <time name="total">  982.91  985.49</time>
   <energy>
    <i name="e_fr_energy">   -505.12815867 </i>
    <i name="e_wo_entrp">   -505.11293147 </i>
    <i name="e_0_energy">   -505.12054507 </i>
   </energy>
  </scstep>
  <scstep>
   <time name="dav">  969.62  972.02</time>
   <time name="total">  988.19  990.64</time>
   <energy>
    <i name="e_fr_energy">   -505.12815715 </i>
    <i name="e_wo_entrp">   -505.11293017 </i>
    <i name="e_0_energy">   -505.12054366 </i>
   </energy>
  </scstep>
  <scstep>
   <time name="dav">  890.34  892.45</time>
   <time name="total">  909.26  911.43</time>
   <energy>
    <i name="e_fr_energy">   -505.12815716 </i>
    <i name="e_wo_entrp">   -505.11293038 </i>
    <i name="e_0_energy">   -505.12054377 </i>
   </energy>
  </scstep>
  <scstep>
   <time name="dav">  423.04  423.98</time>
   <time name="total">  438.61  439.59</time>
   <energy>
    <i name="e_fr_energy">   -505.12815717 </i>
    <i name="e_wo_entrp">   -505.11293033 </i>
    <i name="e_0_energy">   -505.12054375 </i>
   </energy>
  </scstep>
  <scstep>
   <time name="dav">  543.05  544.26</time>
   <time name="total">  560.71  561.96</time>
   <energy>
    <i name="e_fr_energy">   -505.12815716 </i>
    <i name="e_wo_entrp">   -505.11293028 </i>
    <i name="e_0_energy">   -505.12054372 </i>
   </energy>
  </scstep>
  <scstep>
   <time name="dav">  600.30  601.83</time>
   <time name="total">  603.75  605.28</time>
   <energy>
    <i name="alphaZ">   4890.97834259 </i>
    <i name="ewald"> -98843.16965134 </i>
    <i name="hartreedc"> -24657.93552781 </i>
    <i name="XCdc">   -922.44878477 </i>
    <i name="pawpsdc"> 122252.64553703 </i>
    <i name="pawaedc">-117444.90460707 </i>
    <i name="eentropy">     -0.01522689 </i>
    <i name="bandstr">   2337.74366074 </i>
    <i name="atom"> 111881.97810035 </i>
    <i name="e_fr_energy">   -505.12815716 </i>
    <i name="e_wo_entrp">   -505.11293027 </i>
    <i name="e_0_energy">   -505.12054372 </i>
   </energy>
  </scstep>
  <structure>
   <crystal>
    <varray name="basis" >
     <v>      14.01039598       0.00139138       0.00000000 </v>
     <v>      -0.00150196      13.76691092       0.00000000 </v>
     <v>       0.00000000       0.00000000      14.55019386 </v>
    </varray>
    <i name="volume">   2806.43958022 </i>
    <varray name="rec_basis" >
     <v>       0.07137557       0.00000779       0.00000000 </v>
     <v>      -0.00000721       0.07263794       0.00000000 </v>
     <v>       0.00000000       0.00000000       0.06872761 </v>
    </varray>
   </crystal>
   <varray name="positions" >
    <v>       0.42987898       0.17167077       0.33247735 </v>
    <v>       0.92987898       0.17167077       0.33247735 </v>
    <v>       0.42987898       0.67167077       0.33247735 </v>
    <v>       0.92987898       0.67167077       0.33247735 </v>
    <v>       0.42987898       0.17167077       0.66581068 </v>
    <v>       0.92987898       0.17167077       0.66581068 </v>
    <v>       0.42987898       0.67167077       0.66581068 </v>
    <v>       0.92987898       0.67167077       0.66581068 </v>
    <v>       0.42987898       0.17167077       0.99914401 </v>
    <v>       0.92987898       0.17167077       0.99914401 </v>
    <v>       0.42987898       0.67167077       0.99914401 </v>
    <v>       0.92987898       0.67167077       0.99914401 </v>
    <v>       0.07012102       0.32832923       0.33247735 </v>
    <v>       0.57012102       0.32832923       0.33247735 </v>
    <v>       0.07012102       0.82832923       0.33247735 </v>
    <v>       0.57012102       0.82832923       0.33247735 </v>
    <v>       0.07012102       0.32832923       0.66581068 </v>
    <v>       0.57012102       0.32832923       0.66581068 </v>
    <v>       0.07012102       0.82832923       0.66581068 </v>
    <v>       0.57012102       0.82832923       0.66581068 </v>
    <v>       0.07012102       0.32832923       0.99914401 </v>
    <v>       0.57012102       0.32832923       0.99914401 </v>
    <v>       0.07012102       0.82832923       0.99914401 </v>
    <v>       0.57012102       0.82832923       0.99914401 </v>
    <v>       0.32012053       0.42167367       0.05641075 </v>
    <v>       0.82012053       0.42167367       0.05641075 </v>
    <v>       0.32012053       0.92167367       0.05641075 </v>
    <v>       0.82012053       0.92167367       0.05641075 </v>
    <v>       0.32012053       0.42167367       0.38974408 </v>
    <v>       0.82012053       0.42167367       0.38974408 </v>
    <v>       0.32012053       0.92167367       0.38974408 </v>
    <v>       0.82012053       0.92167367       0.38974408 </v>
    <v>       0.32012053       0.42167367       0.72307741 </v>
    <v>       0.82012053       0.42167367       0.72307741 </v>
    <v>       0.32012053       0.92167367       0.72307741 </v>
    <v>       0.82012053       0.92167367       0.72307741 </v>
    <v>       0.17987947       0.07832633       0.05641075 </v>
    <v>       0.67987947       0.07832633       0.05641075 </v>
    <v>       0.17987947       0.57832633       0.05641075 </v>
    <v>       0.67987947       0.57832633       0.05641075 </v>
    <v>       0.17987947       0.07832633       0.38974408 </v>
    <v>       0.67987947       0.07832633       0.38974408 </v>
    <v>       0.17987947       0.57832633       0.38974408 </v>
    <v>       0.67987947       0.57832633       0.38974408 </v>
    <v>       0.17987947       0.07832633       0.72307741 </v>
    <v>       0.67987947       0.07832633       0.72307741 </v>
    <v>       0.17987947       0.57832633       0.72307741 </v>
    <v>       0.67987947       0.57832633       0.72307741 </v>
    <v>       0.17987776       0.32832369       0.16580856 </v>
    <v>       0.67987776       0.32832369       0.16580856 </v>
    <v>       0.17987776       0.82832369       0.16580856 </v>
    <v>       0.67987776       0.82832369       0.16580856 </v>
    <v>       0.17987776       0.32832369       0.49914189 </v>
    <v>       0.67987776       0.32832369       0.49914189 </v>
    <v>       0.17987776       0.82832369       0.49914189 </v>
    <v>       0.67987776       0.82832369       0.49914189 </v>
    <v>       0.17987776       0.32832369       0.83247522 </v>
    <v>       0.67987776       0.32832369       0.83247522 </v>
    <v>       0.17987776       0.82832369       0.83247522 </v>
    <v>       0.67987776       0.82832369       0.83247522 </v>
    <v>       0.32012224       0.17167631       0.16580856 </v>
    <v>       0.82012224       0.17167631       0.16580856 </v>
    <v>       0.32012224       0.67167631       0.16580856 </v>
    <v>       0.82012224       0.67167631       0.16580856 </v>
    <v>       0.32012224       0.17167631       0.49914189 </v>
    <v>       0.82012224       0.17167631       0.49914189 </v>
    <v>       0.32012224       0.67167631       0.49914189 </v>
    <v>       0.82012224       0.67167631       0.49914189 </v>
    <v>       0.32012224       0.17167631       0.83247522 </v>
    <v>       0.82012224       0.17167631       0.83247522 </v>
    <v>       0.32012224       0.67167631       0.83247522 </v>
    <v>       0.82012224       0.67167631       0.83247522 </v>
    <v>       0.42987656       0.42167494       0.22308000 </v>
    <v>       0.92987656       0.42167494       0.22308000 </v>
    <v>       0.42987656       0.92167494       0.22308000 </v>
    <v>       0.92987656       0.92167494       0.22308000 </v>
    <v>       0.42987656       0.42167494       0.55641333 </v>
    <v>       0.92987656       0.42167494       0.55641333 </v>
    <v>       0.42987656       0.92167494       0.55641333 </v>
    <v>       0.92987656       0.92167494       0.55641333 </v>
    <v>       0.42987656       0.42167494       0.88974666 </v>
    <v>       0.92987656       0.42167494       0.88974666 </v>
    <v>       0.42987656       0.92167494       0.88974666 </v>
    <v>       0.92987656       0.92167494       0.88974666 </v>
    <v>       0.07012344       0.07832506       0.22308000 </v>
    <v>       0.57012344       0.07832506       0.22308000 </v>
    <v>       0.07012344       0.57832506       0.22308000 </v>
    <v>       0.57012344       0.57832506       0.22308000 </v>
    <v>       0.07012344       0.07832506       0.55641333 </v>
    <v>       0.57012344       0.07832506       0.55641333 </v>
    <v>       0.07012344       0.57832506       0.55641333 </v>
    <v>       0.57012344       0.57832506       0.55641333 </v>
    <v>       0.07012344       0.07832506       0.88974666 </v>
    <v>       0.57012344       0.07832506       0.88974666 </v>
    <v>       0.07012344       0.57832506       0.88974666 </v>
    <v>       0.57012344       0.57832506       0.88974666 </v>
    <v>       0.00000000       0.00000000       0.05479365 </v>
    <v>       0.50000000       0.00000000       0.05479365 </v>
    <v>       0.00000000       0.50000000       0.05479365 </v>
    <v>       0.50000000       0.50000000       0.05479365 </v>
    <v>       0.00000000       0.00000000       0.38812698 </v>
    <v>       0.50000000       0.00000000       0.38812698 </v>
    <v>       0.00000000       0.50000000       0.38812698 </v>
    <v>       0.50000000       0.50000000       0.38812698 </v>
    <v>       0.00000000       0.00000000       0.72146032 </v>
    <v>       0.50000000       0.00000000       0.72146032 </v>
    <v>       0.00000000       0.50000000       0.72146032 </v>
    <v>       0.50000000       0.50000000       0.72146032 </v>
    <v>       0.25000000       0.00072638       0.22145206 </v>
    <v>       0.75000000       0.00000000       0.22145206 </v>
    <v>       0.25000000       0.50000000       0.22145206 </v>
    <v>       0.75000000       0.50000000       0.22145206 </v>
    <v>       0.25000000       0.00000000       0.55478539 </v>
    <v>       0.75000000       0.00000000       0.55478539 </v>
    <v>       0.25000000       0.50000000       0.55478539 </v>
    <v>       0.75000000       0.50000000       0.55478539 </v>
    <v>       0.25000000       0.00000000       0.88811873 </v>
    <v>       0.75000000       0.00000000       0.88811873 </v>
    <v>       0.25000000       0.50000000       0.88811873 </v>
    <v>       0.75000000       0.50000000       0.88811873 </v>
    <v>       0.00000000       0.25000000       0.16743769 </v>
    <v>       0.50000000       0.25000000       0.16743769 </v>
    <v>       0.00000000       0.75000000       0.16743769 </v>
    <v>       0.50000000       0.75000000       0.16743769 </v>
    <v>       0.00000000       0.25000000       0.50077102 </v>
    <v>       0.50000000       0.25000000       0.50077102 </v>
    <v>       0.00000000       0.75000000       0.50077102 </v>
    <v>       0.50000000       0.75000000       0.50077102 </v>
    <v>       0.00000000       0.25000000       0.83410435 </v>
    <v>       0.50000000       0.25000000       0.83410435 </v>
    <v>       0.00000000       0.75000000       0.83410435 </v>
    <v>       0.50000000       0.75000000       0.83410435 </v>
    <v>       0.25000000       0.25000000       0.00076332 </v>
    <v>       0.75000000       0.25000000       0.00076332 </v>
    <v>       0.25000000       0.75000000       0.00076332 </v>
    <v>       0.75000000       0.75000000       0.00076332 </v>
    <v>       0.25000000       0.25000000       0.33409665 </v>
    <v>       0.75000000       0.25000000       0.33409665 </v>
    <v>       0.25000000       0.75000000       0.33409665 </v>
    <v>       0.75000000       0.75000000       0.33409665 </v>
    <v>       0.25000000       0.25000000       0.66742999 </v>
    <v>       0.75000000       0.25000000       0.66742999 </v>
    <v>       0.25000000       0.75000000       0.66742999 </v>
    <v>       0.75000000       0.75000000       0.66742999 </v>
   </varray>
  </structure>
  <varray name="forces" >
   <v>       0.00054465       0.00039879       0.00028716 </v>
   <v>       0.00011620       0.00003327      -0.00014001 </v>
   <v>       0.00058085      -0.00011484      -0.00004203 </v>
   <v>       0.00000275       0.00003864       0.00000603 </v>
   <v>       0.00003055       0.00013096      -0.00006145 </v>
   <v>       0.00005344       0.00013939      -0.00008333 </v>
   <v>       0.00010480       0.00007276       0.00002135 </v>
   <v>       0.00003706       0.00005132      -0.00001572 </v>
   <v>       0.00027981       0.00042096      -0.00054857 </v>
   <v>       0.00006497       0.00006197      -0.00002390 </v>
   <v>       0.00017265       0.00005169      -0.00000854 </v>
   <v>      -0.00001895      -0.00000825      -0.00005419 </v>
   <v>       0.00062347      -0.00025365      -0.00002853 </v>
   <v>       0.00003981      -0.00009981      -0.00007399 </v>
   <v>       0.00057619       0.00026351      -0.00035215 </v>
   <v>       0.00015531      -0.00010811       0.00007026 </v>
   <v>       0.00014294      -0.00006630      -0.00009108 </v>
   <v>       0.00007500      -0.00008728      -0.00005263 </v>
   <v>       0.00006803      -0.00000901      -0.00000724 </v>
   <v>       0.00009098      -0.00000052       0.00001343 </v>
   <v>       0.00021032      -0.00008810      -0.00005964 </v>
   <v>       0.00001860      -0.00014712      -0.00001434 </v>
   <v>       0.00031404       0.00028230       0.00047131 </v>
   <v>       0.00010243      -0.00007740      -0.00004462 </v>
   <v>       0.00003418      -0.00019102      -0.00000473 </v>
   <v>       0.00003328      -0.00000640       0.00004534 </v>
   <v>      -0.00219469      -0.00002828       0.00575462 </v>
   <v>       0.00041774       0.00006412      -0.00003435 </v>
   <v>      -0.00024371      -0.00089015      -0.00018068 </v>
   <v>       0.00006133       0.00001327       0.00004474 </v>
   <v>      -0.00042410      -0.00013314      -0.00301863 </v>
   <v>       0.00031741       0.00008212       0.00011851 </v>
   <v>       0.00008457      -0.00006886       0.00009713 </v>
   <v>       0.00007122      -0.00000170       0.00003455 </v>
   <v>       0.00012191      -0.00007025       0.00004217 </v>
   <v>       0.00012167       0.00002695       0.00003569 </v>
   <v>      -0.00226334      -0.00012029      -0.00570601 </v>
   <v>       0.00037777       0.00001847       0.00014029 </v>
   <v>      -0.00000387      -0.00023835       0.00011126 </v>
   <v>      -0.00000676      -0.00005201       0.00006109 </v>
   <v>      -0.00047942      -0.00018352       0.00316353 </v>
   <v>       0.00027887       0.00003773      -0.00001288 </v>
   <v>      -0.00028282      -0.00093277       0.00028561 </v>
   <v>       0.00002058      -0.00003298       0.00006038 </v>
   <v>       0.00008034      -0.00011333       0.00006442 </v>
   <v>       0.00008259      -0.00001808       0.00007123 </v>
   <v>       0.00004519      -0.00011617       0.00000699 </v>
   <v>       0.00003108      -0.00004716       0.00007147 </v>
   <v>       0.00000361       0.00025988       0.00009517 </v>
   <v>      -0.00002659       0.00000350      -0.00001645 </v>
   <v>       0.00952122       0.01428207       0.00485150 </v>
   <v>       0.00007865      -0.00002047      -0.00007948 </v>
   <v>       0.00041270      -0.00036339      -0.00080446 </v>
   <v>       0.00004518      -0.00003912      -0.00001626 </v>
   <v>      -0.00005374       0.00012914       0.00005354 </v>
   <v>       0.00011762       0.00001974      -0.00002333 </v>
   <v>       0.00014751      -0.00041524       0.00013686 </v>
   <v>       0.00004634      -0.00007892      -0.00002518 </v>
   <v>       0.00001546       0.00001464      -0.00009238 </v>
   <v>       0.00006933       0.00000444      -0.00002040 </v>
   <v>       0.00994335       0.01506797      -0.00516902 </v>
   <v>       0.00008765      -0.00001520       0.00005677 </v>
   <v>       0.00001865       0.00025143      -0.00011734 </v>
   <v>      -0.00001897       0.00000793      -0.00000763 </v>
   <v>      -0.00004732       0.00013894      -0.00007717 </v>
   <v>       0.00012707       0.00002636       0.00000023 </v>
   <v>       0.00041419      -0.00035531       0.00077230 </v>
   <v>       0.00005277      -0.00003334      -0.00000706 </v>
   <v>       0.00002385       0.00002173       0.00006847 </v>
   <v>       0.00007751       0.00001027      -0.00000300 </v>
   <v>       0.00015336      -0.00040889      -0.00015824 </v>
   <v>       0.00005427      -0.00007299       0.00000146 </v>
   <v>       0.00009226      -0.00011352       0.00005086 </v>
   <v>       0.00007288      -0.00015840       0.00002321 </v>
   <v>      -0.00577184       0.00146530      -0.00016265 </v>
   <v>       0.00034583       0.00015823      -0.00000533 </v>
   <v>       0.00009378       0.00003204       0.00001628 </v>
   <v>       0.00005565       0.00001077       0.00002602 </v>
   <v>       0.00021410       0.00007304       0.00030950 </v>
   <v>       0.00014334       0.00010005      -0.00013624 </v>
   <v>       0.00005550      -0.00003610       0.00004482 </v>
   <v>       0.00005604       0.00000183       0.00004181 </v>
   <v>       0.00018331       0.00003064      -0.00024498 </v>
   <v>       0.00020294       0.00011302       0.00028006 </v>
   <v>      -0.00586272       0.00142279       0.00020530 </v>
   <v>       0.00032047       0.00013176       0.00004247 </v>
   <v>       0.00006818      -0.00013915      -0.00001175 </v>
   <v>       0.00004773      -0.00018031       0.00001474 </v>
   <v>       0.00018867       0.00004940      -0.00026968 </v>
   <v>       0.00012001       0.00007673       0.00017721 </v>
   <v>       0.00006994       0.00000688       0.00002199 </v>
   <v>       0.00003040      -0.00001377       0.00001220 </v>
   <v>       0.00015730       0.00000469       0.00028241 </v>
   <v>       0.00017827       0.00008896      -0.00024203 </v>
   <v>       0.00003093      -0.00006149      -0.00000650 </v>
   <v>       0.00003111      -0.00002344      -0.00000397 </v>
   <v>      -0.00201181      -0.00119786      -0.00088173 </v>
   <v>      -0.00200407      -0.00119601       0.00069842 </v>
   <v>      -0.00013665       0.00009949      -0.00006480 </v>
   <v>      -0.00013737       0.00009787      -0.00012049 </v>
   <v>      -0.00176726      -0.00119435       0.00077335 </v>
   <v>      -0.00177284      -0.00119909      -0.00097005 </v>
   <v>      -0.00031538       0.00009925      -0.00017406 </v>
   <v>      -0.00031309       0.00009802      -0.00001223 </v>
   <v>      -0.00029269      -0.00013680      -0.00004179 </v>
   <v>      -0.00029389      -0.00013747      -0.00014356 </v>
   <v>      -0.00007139      -0.00007790      -0.00007659 </v>
   <v>      -0.00007141      -0.00007774      -0.00010807 </v>
   <v>       0.00355212      -0.05096349       0.00029761 </v>
   <v>      -0.00019752       0.00024294       0.00001007 </v>
   <v>      -0.00030412       0.00097126       0.00000960 </v>
   <v>      -0.00002667       0.00016748       0.00001064 </v>
   <v>      -0.00014419       0.00047913       0.00000223 </v>
   <v>      -0.00048905       0.00023786       0.00000911 </v>
   <v>      -0.00017946       0.00109622       0.00001851 </v>
   <v>      -0.00004927       0.00013570       0.00001107 </v>
   <v>      -0.00001398       0.00047918       0.00001575 </v>
   <v>      -0.00071496       0.00023785       0.00001001 </v>
   <v>       0.00002743       0.00109619       0.00001201 </v>
   <v>      -0.00009990       0.00013573       0.00001071 </v>
   <v>      -0.00088043       0.00045277       0.00003211 </v>
   <v>       0.00013737       0.00044940      -0.00055668 </v>
   <v>       0.00012360       0.00044125       0.00048762 </v>
   <v>      -0.00087160       0.00043747      -0.00009034 </v>
   <v>      -0.00053836      -0.00030874       0.00015122 </v>
   <v>       0.00001506      -0.00030863       0.00007496 </v>
   <v>       0.00001331      -0.00030589      -0.00013529 </v>
   <v>      -0.00053290      -0.00030587      -0.00020758 </v>
   <v>      -0.00005917      -0.00003179      -0.00002666 </v>
   <v>      -0.00008673      -0.00003187       0.00007863 </v>
   <v>      -0.00008770      -0.00003085      -0.00013840 </v>
   <v>      -0.00006037      -0.00003088      -0.00003151 </v>
   <v>      -0.00018275       0.00226812      -0.00179265 </v>
   <v>      -0.00005438       0.00003967      -0.00003016 </v>
   <v>      -0.00017564       0.00225294       0.00188553 </v>
   <v>      -0.00005439       0.00004050       0.00015005 </v>
   <v>      -0.00057259       0.00736740       0.00427230 </v>
   <v>      -0.00014349       0.00018288       0.00004356 </v>
   <v>      -0.00055414       0.00726526      -0.00408105 </v>
   <v>      -0.00014132       0.00018167       0.00007511 </v>
   <v>      -0.00011875       0.00042529       0.00000433 </v>
   <v>      -0.00014394       0.00013566       0.00011080 </v>
   <v>      -0.00011575       0.00042652       0.00011564 </v>
   <v>      -0.00014217       0.00013576       0.00000879 </v>
  </varray>
  <varray name="stress" >
   <v>      -0.16359511       0.00067955      -0.00719545 </v>
   <v>       0.00067953      -0.15326931      -0.01091823 </v>
   <v>      -0.00719537      -0.01091821      -0.15727515 </v>
  </varray>
  <energy>
   <i name="e_fr_energy">   -505.12815716 </i>
   <i name="e_wo_entrp">   -505.12054372 </i>
   <i name="e_0_energy">     -0.01522689 </i>
  </energy>
  <time name="totalsc">18778.5918826.18</time>
  <eigenvalues>
   <array>
    <dimension dim="1">band</dimension>
    <dimension dim="2">kpoint</dimension>
    <dimension dim="3">spin</dimension>
    <field>eigene</field>
    <field>occ</field>
    <set>
     <set comment="spin 1">
      <set comment="kpoint 1">
       <r>   -7.4639    1.0000 </r>
       <r>   -7.2295    1.0000 </r>
       <r>   -7.2295    1.0000 </r>
       <r>   -7.2157    1.0000 </r>
       <r>   -7.2157    1.0000 </r>
       <r>   -7.1645    1.0000 </r>
       <r>   -7.1641    1.0000 </r>
       <r>   -7.0695    1.0000 </r>
       <r>   -7.0695    1.0000 </r>
       <r>   -7.0695    1.0000 </r>
       <r>   -7.0695    1.0000 </r>
       <r>   -7.0094    1.0000 </r>
       <r>   -7.0091    1.0000 </r>
       <r>   -7.0091    1.0000 </r>
       <r>   -7.0088    1.0000 </r>
       <r>   -6.9942    1.0000 </r>
       <r>   -6.9939    1.0000 </r>
       <r>   -6.9938    1.0000 </r>
       <r>   -6.9935    1.0000 </r>
       <r>   -6.9476    1.0000 </r>
       <r>   -6.9351    1.0000 </r>
       <r>   -6.9351    1.0000 </r>
       <r>   -6.9195    1.0000 </r>
       <r>   -6.9191    1.0000 </r>
       <r>   -6.9191    1.0000 </r>
       <r>   -6.9191    1.0000 </r>
       <r>   -6.9191    1.0000 </r>
       <r>   -6.9191    1.0000 </r>
       <r>   -6.9190    1.0000 </r>
       <r>   -6.9186    1.0000 </r>
       <r>   -6.8368    1.0000 </r>
       <r>   -6.8366    1.0000 </r>
       <r>   -6.8366    1.0000 </r>
       <r>   -6.8365    1.0000 </r>
       <r>   -6.8238    1.0000 </r>
       <r>   -6.8181    1.0000 </r>
       <r>   -6.8179    1.0000 </r>
       <r>   -6.7726    1.0000 </r>
       <r>   -6.7726    1.0000 </r>
       <r>   -6.7669    1.0000 </r>
       <r>   -6.7669    1.0000 </r>
       <r>   -6.7669    1.0000 </r>
       <r>   -6.7668    1.0000 </r>
       <r>   -6.7547    1.0000 </r>
       <r>   -6.7547    1.0000 </r>
       <r>   -6.7400    1.0000 </r>
       <r>   -6.7400    1.0000 </r>
       <r>   -6.6844    1.0000 </r>
       <r>   -0.3461    1.0000 </r>
       <r>    0.0939    1.0000 </r>
       <r>    0.0942    1.0000 </r>
       <r>    0.0942    1.0000 </r>
       <r>    0.0943    1.0000 </r>
       <r>    0.0943    1.0000 </r>
       <r>    0.0944    1.0000 </r>
       <r>    0.0944    1.0000 </r>
       <r>    0.0946    1.0000 </r>
       <r>    0.1077    1.0000 </r>
       <r>    0.1078    1.0000 </r>
       <r>    0.1079    1.0000 </r>
       <r>    0.1080    1.0000 </r>
       <r>    0.1520    1.0000 </r>
       <r>    0.1522    1.0000 </r>
       <r>    0.1523    1.0000 </r>
       <r>    0.1524    1.0000 </r>
       <r>    0.1580    1.0000 </r>
       <r>    0.1581    1.0000 </r>
       <r>    0.1595    1.0000 </r>
       <r>    0.1598    1.0000 </r>
       <r>    0.2007    1.0000 </r>
       <r>    0.2009    1.0000 </r>
       <r>    0.2010    1.0000 </r>
       <r>    0.2011    1.0000 </r>
       <r>    0.2366    1.0000 </r>
       <r>    0.2368    1.0000 </r>
       <r>    0.2568    1.0000 </r>
       <r>    0.2568    1.0000 </r>
       <r>    0.2821    1.0000 </r>
       <r>    0.3008    1.0000 </r>
       <r>    0.3008    1.0000 </r>
       <r>    0.3229    1.0000 </r>
       <r>    0.4472    1.0000 </r>
       <r>    0.4473    1.0000 </r>
       <r>    0.4509    1.0000 </r>
       <r>    0.4509    1.0000 </r>
       <r>    0.4573    1.0000 </r>
       <r>    0.4573    1.0000 </r>
       <r>    0.4654    1.0000 </r>
       <r>    0.4656    1.0000 </r>
       <r>    0.4658    1.0000 </r>
       <r>    0.4659    1.0000 </r>
       <r>    0.4699    1.0000 </r>
       <r>    0.4700    1.0000 </r>
       <r>    0.4701    1.0000 </r>
       <r>    0.4703    1.0000 </r>
       <r>    0.5113    1.0000 </r>
       <r>    0.5113    1.0000 </r>
       <r>    0.5261    1.0000 </r>
       <r>    0.5263    1.0000 </r>
       <r>    0.5264    1.0000 </r>
       <r>    0.5265    1.0000 </r>
       <r>    0.5971    1.0000 </r>
       <r>    0.6017    1.0000 </r>
       <r>    0.6547    1.0000 </r>
       <r>    0.6549    1.0000 </r>
       <r>    0.6552    1.0000 </r>
       <r>    0.6553    1.0000 </r>
       <r>    0.6617    1.0000 </r>
       <r>    0.6617    1.0000 </r>
       <r>    0.6878    1.0000 </r>
       <r>    0.6878    1.0000 </r>
       <r>    0.7018    1.0000 </r>
       <r>    0.7019    1.0000 </r>
       <r>    0.7019    1.0000 </r>
       <r>    0.7020    1.0000 </r>
       <r>    0.7206    1.0000 </r>
       <r>    0.7208    1.0000 </r>
       <r>    0.7410    1.0000 </r>
       <r>    0.7411    1.0000 </r>
       <r>    0.7485    1.0000 </r>
       <r>    0.8022    1.0000 </r>
       <r>    0.8141    1.0000 </r>
       <r>    0.8143    1.0000 </r>
       <r>    0.8145    1.0000 </r>
       <r>    0.8147    1.0000 </r>
       <r>    0.8303    1.0000 </r>
       <r>    0.8304    1.0000 </r>
       <r>    0.8305    1.0000 </r>
       <r>    0.8305    1.0000 </r>
       <r>    0.8515    1.0000 </r>
       <r>    0.8519    1.0000 </r>
       <r>    0.8520    1.0000 </r>
       <r>    0.8520    1.0000 </r>
       <r>    0.8521    1.0000 </r>
       <r>    0.8521    1.0000 </r>
       <r>    0.8522    1.0000 </r>
       <r>    0.8526    1.0000 </r>
       <r>    0.8950    1.0000 </r>
       <r>    0.8977    1.0000 </r>
       <r>    0.8978    1.0000 </r>
       <r>    0.8992    1.0000 </r>
       <r>    0.8994    1.0000 </r>
       <r>    0.8995    1.0000 </r>
       <r>    0.8997    1.0000 </r>
       <r>    0.9204    1.0000 </r>
       <r>    0.9458    1.0000 </r>
       <r>    0.9461    1.0000 </r>
       <r>    1.0706    1.0000 </r>
       <r>    1.0709    1.0000 </r>
       <r>    1.0709    1.0000 </r>
       <r>    1.0712    1.0000 </r>
       <r>    1.0846    1.0000 </r>
       <r>    1.0847    1.0000 </r>
       <r>    1.0847    1.0000 </r>
       <r>    1.0848    1.0000 </r>
       <r>    1.0850    1.0000 </r>
       <r>    1.0851    1.0000 </r>
       <r>    1.1009    1.0000 </r>
       <r>    1.1009    1.0000 </r>
       <r>    1.1456    1.0000 </r>
       <r>    1.1458    1.0000 </r>
       <r>    1.1461    1.0000 </r>
       <r>    1.1462    1.0000 </r>
       <r>    1.1616    1.0000 </r>
       <r>    1.1619    1.0000 </r>
       <r>    1.1619    1.0000 </r>
       <r>    1.1622    1.0000 </r>
       <r>    1.1758    1.0000 </r>
       <r>    1.1758    1.0000 </r>
       <r>    1.1996    1.0000 </r>
       <r>    1.2242    1.0000 </r>
       <r>    1.2242    1.0000 </r>
       <r>    1.2296    1.0000 </r>
       <r>    1.2296    1.0000 </r>
       <r>    1.2299    1.0000 </r>
       <r>    1.2299    1.0000 </r>
       <r>    1.2300    1.0000 </r>
       <r>    1.2300    1.0000 </r>
       <r>    1.2302    1.0000 </r>
       <r>    1.2303    1.0000 </r>
       <r>    1.2370    1.0000 </r>
       <r>    1.2372    1.0000 </r>
       <r>    1.3414    1.0000 </r>
       <r>    1.3415    1.0000 </r>
       <r>    1.3415    1.0000 </r>
       <r>    1.3416    1.0000 </r>
       <r>    1.3653    1.0000 </r>
       <r>    1.3664    1.0000 </r>
       <r>    1.3664    1.0000 </r>
       <r>    1.3671    1.0000 </r>
       <r>    1.3673    1.0000 </r>
       <r>    1.3734    1.0000 </r>
       <r>    1.3734    1.0000 </r>
       <r>    1.3736    1.0000 </r>
       <r>    1.3736    1.0000 </r>
[...]
       <r>    -1.7773     0.0000    96.0000 </r>
       <r>    -1.7057     0.0000    96.0000 </r>
       <r>    -1.6340     0.0000    96.0000 </r>
       <r>    -1.5624     0.0000    96.0000 </r>
       <r>    -1.4907     0.0000    96.0000 </r>
       <r>    -1.4191     0.0000    96.0000 </r>
       <r>    -1.3474     0.0000    96.0000 </r>
       <r>    -1.2757     0.0000    96.0000 </r>
       <r>    -1.2041     0.0000    96.0000 </r>
       <r>    -1.1324     0.0000    96.0000 </r>
       <r>    -1.0608     0.0000    96.0000 </r>
       <r>    -0.9891     0.0000    96.0000 </r>
       <r>    -0.9175     0.0000    96.0000 </r>
       <r>    -0.8458     0.0000    96.0000 </r>
       <r>    -0.7742     0.0000    96.0000 </r>
       <r>    -0.7025     0.0000    96.0000 </r>
       <r>    -0.6309     0.0000    96.0000 </r>
       <r>    -0.5592     0.0000    96.0000 </r>
       <r>    -0.4876     0.0001    96.0000 </r>
       <r>    -0.4159     0.0840    96.0060 </r>
       <r>    -0.3443     1.7317    96.1301 </r>
       <r>    -0.2726     1.8863    96.2653 </r>
       <r>    -0.2010     8.1329    96.8480 </r>
       <r>    -0.1293    15.3956    97.9511 </r>
       <r>    -0.0577    23.9449    99.6668 </r>
       <r>     0.0140    50.8221   103.3083 </r>
       <r>     0.0856   101.3246   110.5685 </r>
       <r>     0.1573   188.2898   124.0598 </r>
       <r>     0.2289   204.8531   138.7380 </r>
       <r>     0.3006   274.3643   158.3967 </r>
       <r>     0.3723   194.5243   172.3348 </r>
       <r>     0.4439   125.3065   181.3133 </r>
       <r>     0.5156   140.7158   191.3958 </r>
       <r>     0.5872   124.2825   200.3009 </r>
       <r>     0.6589   165.0909   212.1301 </r>
       <r>     0.7305   244.9360   229.6802 </r>
       <r>     0.8022   229.2106   246.1036 </r>
       <r>     0.8738   290.5794   266.9243 </r>
       <r>     0.9455   286.2602   287.4354 </r>
       <r>     1.0171   147.5634   298.0086 </r>
       <r>     1.0888   183.0766   311.1264 </r>
       <r>     1.1604   226.5188   327.3570 </r>
       <r>     1.2321   228.9670   343.7629 </r>
       <r>     1.3037   297.7838   365.0997 </r>
       <r>     1.3754   305.7677   387.0086 </r>
       <r>     1.4470   391.1397   415.0346 </r>
       <r>     1.5187   355.6342   440.5165 </r>
       <r>     1.5903   372.8781   467.2340 </r>
       <r>     1.6620   365.5628   493.4273 </r>
       <r>     1.7336   391.2200   521.4591 </r>
       <r>     1.8053   372.7763   548.1693 </r>
       <r>     1.8769   357.9145   573.8146 </r>
       <r>     1.9486   388.5832   601.6574 </r>
       <r>     2.0202   414.6353   631.3668 </r>
       <r>     2.0919   378.8616   658.5131 </r>
       <r>     2.1636   360.9368   684.3749 </r>
       <r>     2.2352   374.8656   711.2348 </r>
       <r>     2.3069   397.4324   739.7117 </r>
       <r>     2.3785   338.7119   763.9811 </r>
       <r>     2.4502   296.4989   785.2258 </r>
       <r>     2.5218   338.8430   809.5046 </r>
       <r>     2.5935   354.4569   834.9022 </r>
       <r>     2.6651   408.5359   864.1746 </r>
       <r>     2.7368   374.8143   891.0308 </r>
       <r>     2.8084   379.0004   918.1870 </r>
       <r>     2.8801   431.4622   949.1022 </r>
       <r>     2.9517   498.3474   984.8098 </r>
       <r>     3.0234   497.6313  1020.4661 </r>
       <r>     3.0950   370.7680  1047.0324 </r>
       <r>     3.1667   234.4930  1063.8343 </r>
       <r>     3.2383   205.4394  1078.5545 </r>
       <r>     3.3100   170.9707  1090.8049 </r>
       <r>     3.3816   138.6908  1100.7423 </r>
       <r>     3.4533   119.1386  1109.2789 </r>
       <r>     3.5249   157.1160  1120.5366 </r>
       <r>     3.5966   163.6383  1132.2616 </r>
       <r>     3.6682   101.3713  1139.5250 </r>
       <r>     3.7399    96.7704  1146.4588 </r>
       <r>     3.8116    65.3841  1151.1437 </r>
       <r>     3.8832    72.0570  1156.3068 </r>
       <r>     3.9549    73.5363  1161.5758 </r>
       <r>     4.0265    65.0610  1166.2376 </r>
       <r>     4.0982    92.3830  1172.8570 </r>
       <r>     4.1698   103.0018  1180.2373 </r>
       <r>     4.2415   114.7129  1188.4567 </r>
       <r>     4.3131    75.2569  1193.8490 </r>
       <r>     4.3848    72.8752  1199.0707 </r>
       <r>     4.4564    65.3317  1203.7518 </r>
       <r>     4.5281    91.9534  1210.3405 </r>
       <r>     4.5997    93.3814  1217.0314 </r>
       <r>     4.6714   102.3667  1224.3662 </r>
       <r>     4.7430   139.2151  1234.3413 </r>
       <r>     4.8147   138.3656  1244.2555 </r>
       <r>     4.8863    73.0400  1249.4889 </r>
       <r>     4.9580    53.4771  1253.3207 </r>
       <r>     5.0296    55.0319  1257.2638 </r>
       <r>     5.1013    86.6615  1263.4733 </r>
       <r>     5.1729   143.9027  1273.7842 </r>
       <r>     5.2446   109.4546  1281.6269 </r>
       <r>     5.3162    63.2681  1286.1602 </r>
       <r>     5.3879    59.2812  1290.4078 </r>
       <r>     5.4595    69.3434  1295.3764 </r>
       <r>     5.5312    72.3657  1300.5615 </r>
       <r>     5.6029    76.5277  1306.0449 </r>
       <r>     5.6745   109.9759  1313.9249 </r>
       <r>     5.7462   132.4754  1323.4170 </r>
       <r>     5.8178    73.0419  1328.6506 </r>
       <r>     5.8895    64.4297  1333.2672 </r>
       <r>     5.9611    58.6640  1337.4706 </r>
       <r>     6.0328    30.6022  1339.6633 </r>
       <r>     6.1044    18.9740  1341.0228 </r>
       <r>     6.1761    21.5378  1342.5660 </r>
       <r>     6.2477    16.9184  1343.7783 </r>
       <r>     6.3194     9.0819  1344.4290 </r>
       <r>     6.3910     0.9856  1344.4996 </r>
       <r>     6.4627     0.1149  1344.5079 </r>
       <r>     6.5343     1.8663  1344.6416 </r>
       <r>     6.6060     1.7963  1344.7703 </r>
       <r>     6.6776     5.2620  1345.1473 </r>
       <r>     6.7493    22.7591  1346.7781 </r>
       <r>     6.8209    26.1120  1348.6490 </r>
       <r>     6.8926    11.3138  1349.4597 </r>
       <r>     6.9642     6.3035  1349.9114 </r>
       <r>     7.0359     8.9718  1350.5542 </r>
       <r>     7.1075     4.6739  1350.8891 </r>
       <r>     7.1792    21.3327  1352.4176 </r>
       <r>     7.2508    23.9314  1354.1324 </r>
       <r>     7.3225    28.1134  1356.1467 </r>
       <r>     7.3942    31.2424  1358.3853 </r>
       <r>     7.4658    30.3899  1360.5628 </r>
       <r>     7.5375    60.1234  1364.8708 </r>
       <r>     7.6091    71.9800  1370.0283 </r>
       <r>     7.6808    26.8198  1371.9500 </r>
       <r>     7.7524    54.2931  1375.8402 </r>
       <r>     7.8241    69.6031  1380.8274 </r>
       <r>     7.8957    73.2723  1386.0775 </r>
       <r>     7.9674    75.3365  1391.4756 </r>
       <r>     8.0390    66.5005  1396.2405 </r>
       <r>     8.1107    34.5765  1398.7179 </r>
       <r>     8.1823    18.7997  1400.0650 </r>
       <r>     8.2540     8.4380  1400.6696 </r>
       <r>     8.3256    10.1285  1401.3953 </r>
       <r>     8.3973    50.5600  1405.0180 </r>
       <r>     8.4689    34.5322  1407.4923 </r>
       <r>     8.5406    31.7276  1409.7657 </r>
       <r>     8.6122    94.3271  1416.5244 </r>
       <r>     8.6839   105.0737  1424.0532 </r>
       <r>     8.7555    58.7961  1428.2660 </r>
       <r>     8.8272    51.5656  1431.9608 </r>
       <r>     8.8988    33.4185  1434.3553 </r>
       <r>     8.9705    45.8043  1437.6373 </r>
       <r>     9.0422    30.4943  1439.8223 </r>
       <r>     9.1138    22.2926  1441.4196 </r>
       <r>     9.1855    10.3709  1442.1627 </r>
       <r>     9.2571    16.4528  1443.3416 </r>
       <r>     9.3288    53.2910  1447.1600 </r>
       <r>     9.4004    49.7559  1450.7251 </r>
       <r>     9.4721    54.3264  1454.6177 </r>
       <r>     9.5437    38.2682  1457.3597 </r>
       <r>     9.6154    50.6859  1460.9914 </r>
       <r>     9.6870    50.0522  1464.5778 </r>
       <r>     9.7587    47.8794  1468.0084 </r>
       <r>     9.8303    52.1849  1471.7476 </r>
       <r>     9.9020    76.4136  1477.2228 </r>
       <r>     9.9736    55.6614  1481.2110 </r>
       <r>    10.0453   107.7528  1488.9317 </r>
       <r>    10.1169   119.3567  1497.4839 </r>
       <r>    10.1886    43.6156  1500.6090 </r>
       <r>    10.2602    28.3480  1502.6402 </r>
       <r>    10.3319    48.8175  1506.1381 </r>
       <r>    10.4035    55.8105  1510.1370 </r>
       <r>    10.4752    90.2579  1516.6042 </r>
       <r>    10.5468   109.5415  1524.4531 </r>
       <r>    10.6185   112.1402  1532.4882 </r>
       <r>    10.6901    94.5258  1539.2611 </r>
       <r>    10.7618    78.0969  1544.8569 </r>
       <r>    10.8335   107.2452  1552.5413 </r>
       <r>    10.9051    90.3330  1559.0138 </r>
       <r>    10.9768    65.1392  1563.6812 </r>
       <r>    11.0484    35.1826  1566.2021 </r>
       <r>    11.1201    55.0104  1570.1437 </r>
       <r>    11.1917    52.1021  1573.8769 </r>
       <r>    11.2634    44.5165  1577.0666 </r>
       <r>    11.3350    83.0197  1583.0152 </r>
       <r>    11.4067    53.7786  1586.8685 </r>
       <r>    11.4783    54.6530  1590.7845 </r>
       <r>    11.5500    88.6933  1597.1396 </r>
       <r>    11.6216    68.3526  1602.0372 </r>
       <r>    11.6933    46.5666  1605.3738 </r>
       <r>    11.7649    12.3733  1606.2603 </r>
       <r>    11.8366    14.6334  1607.3089 </r>
       <r>    11.9082    36.1022  1609.8957 </r>
       <r>    11.9799    21.2141  1611.4157 </r>
       <r>    12.0515     3.0506  1611.6343 </r>
       <r>    12.1232     4.5375  1611.9594 </r>
       <r>    12.1948     0.5646  1611.9998 </r>
       <r>    12.2665     0.0023  1612.0000 </r>
       <r>    12.3381     0.0000  1612.0000 </r>
       <r>    12.4098     0.0000  1612.0000 </r>
       <r>    12.4815     0.0000  1612.0000 </r>
       <r>    12.5531     0.0000  1612.0000 </r>
       <r>    12.6248     0.0000  1612.0000 </r>
       <r>    12.6964     0.0000  1612.0000 </r>
       <r>    12.7681     0.0000  1612.0000 </r>
       <r>    12.8397     0.0000  1612.0000 </r>
       <r>    12.9114     0.0000  1612.0000 </r>
       <r>    12.9830     0.0000  1612.0000 </r>
       <r>    13.0547     0.0000  1612.0000 </r>
      </set>
     </set>
    </array>
   </total>
  </dos>
 </calculation>
 <structure name="finalpos" >
  <crystal>
   <varray name="basis" >
    <v>      14.01039598       0.00139138       0.00000000 </v>
    <v>      -0.00150196      13.76691092       0.00000000 </v>
    <v>       0.00000000       0.00000000      14.55019386 </v>
   </varray>
   <i name="volume">   2806.43958022 </i>
   <varray name="rec_basis" >
    <v>       0.07137557       0.00000779       0.00000000 </v>
    <v>      -0.00000721       0.07263794       0.00000000 </v>
    <v>       0.00000000       0.00000000       0.06872761 </v>
   </varray>
  </crystal>
  <varray name="positions" >
   <v>       0.42987898       0.17167077       0.33247735 </v>
   <v>       0.92987898       0.17167077       0.33247735 </v>
   <v>       0.42987898       0.67167077       0.33247735 </v>
   <v>       0.92987898       0.67167077       0.33247735 </v>
   <v>       0.42987898       0.17167077       0.66581068 </v>
   <v>       0.92987898       0.17167077       0.66581068 </v>
   <v>       0.42987898       0.67167077       0.66581068 </v>
   <v>       0.92987898       0.67167077       0.66581068 </v>
   <v>       0.42987898       0.17167077       0.99914401 </v>
   <v>       0.92987898       0.17167077       0.99914401 </v>
   <v>       0.42987898       0.67167077       0.99914401 </v>
   <v>       0.92987898       0.67167077       0.99914401 </v>
   <v>       0.07012102       0.32832923       0.33247735 </v>
   <v>       0.57012102       0.32832923       0.33247735 </v>
   <v>       0.07012102       0.82832923       0.33247735 </v>
   <v>       0.57012102       0.82832923       0.33247735 </v>
   <v>       0.07012102       0.32832923       0.66581068 </v>
   <v>       0.57012102       0.32832923       0.66581068 </v>
   <v>       0.07012102       0.82832923       0.66581068 </v>
   <v>       0.57012102       0.82832923       0.66581068 </v>
   <v>       0.07012102       0.32832923       0.99914401 </v>
   <v>       0.57012102       0.32832923       0.99914401 </v>
   <v>       0.07012102       0.82832923       0.99914401 </v>
   <v>       0.57012102       0.82832923       0.99914401 </v>
   <v>       0.32012053       0.42167367       0.05641075 </v>
   <v>       0.82012053       0.42167367       0.05641075 </v>
   <v>       0.32012053       0.92167367       0.05641075 </v>
   <v>       0.82012053       0.92167367       0.05641075 </v>
   <v>       0.32012053       0.42167367       0.38974408 </v>
   <v>       0.82012053       0.42167367       0.38974408 </v>
   <v>       0.32012053       0.92167367       0.38974408 </v>
   <v>       0.82012053       0.92167367       0.38974408 </v>
   <v>       0.32012053       0.42167367       0.72307741 </v>
   <v>       0.82012053       0.42167367       0.72307741 </v>
   <v>       0.32012053       0.92167367       0.72307741 </v>
   <v>       0.82012053       0.92167367       0.72307741 </v>
   <v>       0.17987947       0.07832633       0.05641075 </v>
   <v>       0.67987947       0.07832633       0.05641075 </v>
   <v>       0.17987947       0.57832633       0.05641075 </v>
   <v>       0.67987947       0.57832633       0.05641075 </v>
   <v>       0.17987947       0.07832633       0.38974408 </v>
   <v>       0.67987947       0.07832633       0.38974408 </v>
   <v>       0.17987947       0.57832633       0.38974408 </v>
   <v>       0.67987947       0.57832633       0.38974408 </v>
   <v>       0.17987947       0.07832633       0.72307741 </v>
   <v>       0.67987947       0.07832633       0.72307741 </v>
   <v>       0.17987947       0.57832633       0.72307741 </v>
   <v>       0.67987947       0.57832633       0.72307741 </v>
   <v>       0.17987776       0.32832369       0.16580856 </v>
   <v>       0.67987776       0.32832369       0.16580856 </v>
   <v>       0.17987776       0.82832369       0.16580856 </v>
   <v>       0.67987776       0.82832369       0.16580856 </v>
   <v>       0.17987776       0.32832369       0.49914189 </v>
   <v>       0.67987776       0.32832369       0.49914189 </v>
   <v>       0.17987776       0.82832369       0.49914189 </v>
   <v>       0.67987776       0.82832369       0.49914189 </v>
   <v>       0.17987776       0.32832369       0.83247522 </v>
   <v>       0.67987776       0.32832369       0.83247522 </v>
   <v>       0.17987776       0.82832369       0.83247522 </v>
   <v>       0.67987776       0.82832369       0.83247522 </v>
   <v>       0.32012224       0.17167631       0.16580856 </v>
   <v>       0.82012224       0.17167631       0.16580856 </v>
   <v>       0.32012224       0.67167631       0.16580856 </v>
   <v>       0.82012224       0.67167631       0.16580856 </v>
   <v>       0.32012224       0.17167631       0.49914189 </v>
   <v>       0.82012224       0.17167631       0.49914189 </v>
   <v>       0.32012224       0.67167631       0.49914189 </v>
   <v>       0.82012224       0.67167631       0.49914189 </v>
   <v>       0.32012224       0.17167631       0.83247522 </v>
   <v>       0.82012224       0.17167631       0.83247522 </v>
   <v>       0.32012224       0.67167631       0.83247522 </v>
   <v>       0.82012224       0.67167631       0.83247522 </v>
   <v>       0.42987656       0.42167494       0.22308000 </v>
   <v>       0.92987656       0.42167494       0.22308000 </v>
   <v>       0.42987656       0.92167494       0.22308000 </v>
   <v>       0.92987656       0.92167494       0.22308000 </v>
   <v>       0.42987656       0.42167494       0.55641333 </v>
   <v>       0.92987656       0.42167494       0.55641333 </v>
   <v>       0.42987656       0.92167494       0.55641333 </v>
   <v>       0.92987656       0.92167494       0.55641333 </v>
   <v>       0.42987656       0.42167494       0.88974666 </v>
   <v>       0.92987656       0.42167494       0.88974666 </v>
   <v>       0.42987656       0.92167494       0.88974666 </v>
   <v>       0.92987656       0.92167494       0.88974666 </v>
   <v>       0.07012344       0.07832506       0.22308000 </v>
   <v>       0.57012344       0.07832506       0.22308000 </v>
   <v>       0.07012344       0.57832506       0.22308000 </v>
   <v>       0.57012344       0.57832506       0.22308000 </v>
   <v>       0.07012344       0.07832506       0.55641333 </v>
   <v>       0.57012344       0.07832506       0.55641333 </v>
   <v>       0.07012344       0.57832506       0.55641333 </v>
   <v>       0.57012344       0.57832506       0.55641333 </v>
   <v>       0.07012344       0.07832506       0.88974666 </v>
   <v>       0.57012344       0.07832506       0.88974666 </v>
   <v>       0.07012344       0.57832506       0.88974666 </v>
   <v>       0.57012344       0.57832506       0.88974666 </v>
   <v>       0.00000000       0.00000000       0.05479365 </v>
   <v>       0.50000000       0.00000000       0.05479365 </v>
   <v>       0.00000000       0.50000000       0.05479365 </v>
   <v>       0.50000000       0.50000000       0.05479365 </v>
   <v>       0.00000000       0.00000000       0.38812698 </v>
   <v>       0.50000000       0.00000000       0.38812698 </v>
   <v>       0.00000000       0.50000000       0.38812698 </v>
   <v>       0.50000000       0.50000000       0.38812698 </v>
   <v>       0.00000000       0.00000000       0.72146032 </v>
   <v>       0.50000000       0.00000000       0.72146032 </v>
   <v>       0.00000000       0.50000000       0.72146032 </v>
   <v>       0.50000000       0.50000000       0.72146032 </v>
   <v>       0.25000000       0.00072638       0.22145206 </v>
   <v>       0.75000000       0.00000000       0.22145206 </v>
   <v>       0.25000000       0.50000000       0.22145206 </v>
   <v>       0.75000000       0.50000000       0.22145206 </v>
   <v>       0.25000000       0.00000000       0.55478539 </v>
   <v>       0.75000000       0.00000000       0.55478539 </v>
   <v>       0.25000000       0.50000000       0.55478539 </v>
   <v>       0.75000000       0.50000000       0.55478539 </v>
   <v>       0.25000000       0.00000000       0.88811873 </v>
   <v>       0.75000000       0.00000000       0.88811873 </v>
   <v>       0.25000000       0.50000000       0.88811873 </v>
   <v>       0.75000000       0.50000000       0.88811873 </v>
   <v>       0.00000000       0.25000000       0.16743769 </v>
   <v>       0.50000000       0.25000000       0.16743769 </v>
   <v>       0.00000000       0.75000000       0.16743769 </v>
   <v>       0.50000000       0.75000000       0.16743769 </v>
   <v>       0.00000000       0.25000000       0.50077102 </v>
   <v>       0.50000000       0.25000000       0.50077102 </v>
   <v>       0.00000000       0.75000000       0.50077102 </v>
   <v>       0.50000000       0.75000000       0.50077102 </v>
   <v>       0.00000000       0.25000000       0.83410435 </v>
   <v>       0.50000000       0.25000000       0.83410435 </v>
   <v>       0.00000000       0.75000000       0.83410435 </v>
   <v>       0.50000000       0.75000000       0.83410435 </v>
   <v>       0.25000000       0.25000000       0.00076332 </v>
   <v>       0.75000000       0.25000000       0.00076332 </v>
   <v>       0.25000000       0.75000000       0.00076332 </v>
   <v>       0.75000000       0.75000000       0.00076332 </v>
   <v>       0.25000000       0.25000000       0.33409665 </v>
   <v>       0.75000000       0.25000000       0.33409665 </v>
   <v>       0.25000000       0.75000000       0.33409665 </v>
   <v>       0.75000000       0.75000000       0.33409665 </v>
   <v>       0.25000000       0.25000000       0.66742999 </v>
   <v>       0.75000000       0.25000000       0.66742999 </v>
   <v>       0.25000000       0.75000000       0.66742999 </v>
   <v>       0.75000000       0.75000000       0.66742999 </v>
  </varray>
 </structure>
</modeling>
