 144 144   0   0
  0.1948916E+02  0.1401040E-08  0.1376691E-08  0.1455019E-08  0.5000000E-15
  1.000000000000000E-004
  CAR 
 unknown system                          
     13.05411029     -8.44092581  301      6.26446364      1.00000000
     -8.441  0.0000E+00  0.0000E+00
     -8.369  0.0000E+00  0.0000E+00
     -8.298  0.0000E+00  0.0000E+00
     -8.226  0.0000E+00  0.0000E+00
     -8.154  0.0000E+00  0.0000E+00
     -8.083  0.0000E+00  0.0000E+00
     -8.011  0.0000E+00  0.0000E+00
     -7.939  0.0000E+00  0.0000E+00
     -7.868  0.0000E+00  0.0000E+00
     -7.796  0.0000E+00  0.0000E+00
     -7.724  0.2991E-12  0.2143E-13
     -7.653  0.1597E-06  0.1144E-07
     -7.581  0.1593E-02  0.1141E-03
     -7.509  0.3521E+00  0.2534E-01
     -7.438  0.4313E+01  0.3344E+00
     -7.366  0.1910E+02  0.1703E+01
     -7.295  0.3786E+02  0.4415E+01
     -7.223  0.3949E+02  0.7245E+01
     -7.151  0.6430E+02  0.1185E+02
     -7.080  0.1004E+03  0.1905E+02
     -7.008  0.1263E+03  0.2810E+02
     -6.936  0.2082E+03  0.4302E+02
     -6.865  0.2226E+03  0.5897E+02
     -6.793  0.2574E+03  0.7741E+02
     -6.721  0.2075E+03  0.9228E+02
     -6.650  0.4970E+02  0.9584E+02
     -6.578  0.2242E+01  0.9600E+02
     -6.506  0.8133E-02  0.9600E+02
     -6.435  0.1035E-05  0.9600E+02
     -6.363  0.3097E-11  0.9600E+02
     -6.291  0.0000E+00  0.9600E+02
     -6.220  0.0000E+00  0.9600E+02
     -6.148  0.0000E+00  0.9600E+02
     -6.076  0.0000E+00  0.9600E+02
     -6.005  0.0000E+00  0.9600E+02
     -5.933  0.0000E+00  0.9600E+02
     -5.862  0.0000E+00  0.9600E+02
     -5.790  0.0000E+00  0.9600E+02
     -5.718  0.0000E+00  0.9600E+02
     -5.647  0.0000E+00  0.9600E+02
     -5.575  0.0000E+00  0.9600E+02
     -5.503  0.0000E+00  0.9600E+02
     -5.432  0.0000E+00  0.9600E+02
     -5.360  0.0000E+00  0.9600E+02
     -5.288  0.0000E+00  0.9600E+02
     -5.217  0.0000E+00  0.9600E+02
     -5.145  0.0000E+00  0.9600E+02
     -5.073  0.0000E+00  0.9600E+02
     -5.002  0.0000E+00  0.9600E+02
     -4.930  0.0000E+00  0.9600E+02
     -4.858  0.0000E+00  0.9600E+02
     -4.787  0.0000E+00  0.9600E+02
     -4.715  0.0000E+00  0.9600E+02
     -4.643  0.0000E+00  0.9600E+02
     -4.572  0.0000E+00  0.9600E+02
     -4.500  0.0000E+00  0.9600E+02
     -4.429  0.0000E+00  0.9600E+02
     -4.357  0.0000E+00  0.9600E+02
     -4.285  0.0000E+00  0.9600E+02
     -4.214  0.0000E+00  0.9600E+02
     -4.142  0.0000E+00  0.9600E+02
     -4.070  0.0000E+00  0.9600E+02
     -3.999  0.0000E+00  0.9600E+02
     -3.927  0.0000E+00  0.9600E+02
     -3.855  0.0000E+00  0.9600E+02
     -3.784  0.0000E+00  0.9600E+02
     -3.712  0.0000E+00  0.9600E+02
     -3.640  0.0000E+00  0.9600E+02
     -3.569  0.0000E+00  0.9600E+02
     -3.497  0.0000E+00  0.9600E+02
     -3.425  0.0000E+00  0.9600E+02
     -3.354  0.0000E+00  0.9600E+02
     -3.282  0.0000E+00  0.9600E+02
     -3.210  0.0000E+00  0.9600E+02
     -3.139  0.0000E+00  0.9600E+02
     -3.067  0.0000E+00  0.9600E+02
     -2.996  0.0000E+00  0.9600E+02
     -2.924  0.0000E+00  0.9600E+02
     -2.852  0.0000E+00  0.9600E+02
     -2.781  0.0000E+00  0.9600E+02
     -2.709  0.0000E+00  0.9600E+02
     -2.637  0.0000E+00  0.9600E+02
     -2.566  0.0000E+00  0.9600E+02
     -2.494  0.0000E+00  0.9600E+02
     -2.422  0.0000E+00  0.9600E+02
     -2.351  0.0000E+00  0.9600E+02
     -2.279  0.0000E+00  0.9600E+02
     -2.207  0.0000E+00  0.9600E+02
     -2.136  0.0000E+00  0.9600E+02
     -2.064  0.0000E+00  0.9600E+02
     -1.992  0.0000E+00  0.9600E+02
     -1.921  0.0000E+00  0.9600E+02
     -1.849  0.0000E+00  0.9600E+02
     -1.777  0.0000E+00  0.9600E+02
     -1.706  0.0000E+00  0.9600E+02
     -1.634  0.0000E+00  0.9600E+02
     -1.563  0.0000E+00  0.9600E+02
     -1.491  0.0000E+00  0.9600E+02
     -1.419  0.0000E+00  0.9600E+02
     -1.348  0.0000E+00  0.9600E+02
     -1.276  0.0000E+00  0.9600E+02
     -1.204  0.0000E+00  0.9600E+02
     -1.133  0.0000E+00  0.9600E+02
     -1.061  0.0000E+00  0.9600E+02
     -0.989  0.0000E+00  0.9600E+02
     -0.918  0.0000E+00  0.9600E+02
     -0.846  0.0000E+00  0.9600E+02
     -0.774  0.0000E+00  0.9600E+02
     -0.703  0.0000E+00  0.9600E+02
     -0.631  0.1356E-14  0.9600E+02
     -0.559  0.2788E-08  0.9600E+02
     -0.488  0.1070E-03  0.9600E+02
     -0.416  0.8292E-01  0.9601E+02
     -0.344  0.1725E+01  0.9613E+02
     -0.273  0.1889E+01  0.9626E+02
     -0.201  0.8094E+01  0.9684E+02
     -0.130  0.1540E+02  0.9795E+02
     -0.058  0.2389E+02  0.9966E+02
      0.014  0.5073E+02  0.1033E+03
      0.085  0.1011E+03  0.1105E+03
      0.157  0.1882E+03  0.1240E+03
      0.229  0.2047E+03  0.1387E+03
      0.300  0.2744E+03  0.1583E+03
      0.372  0.1948E+03  0.1723E+03
      0.444  0.1254E+03  0.1813E+03
      0.515  0.1407E+03  0.1914E+03
      0.587  0.1243E+03  0.2003E+03
      0.659  0.1648E+03  0.2121E+03
      0.730  0.2449E+03  0.2296E+03
      0.802  0.2292E+03  0.2460E+03
      0.874  0.2903E+03  0.2669E+03
      0.945  0.2866E+03  0.2874E+03
      1.017  0.1478E+03  0.2980E+03
      1.089  0.1828E+03  0.3111E+03
      1.160  0.2265E+03  0.3273E+03
      1.232  0.2288E+03  0.3437E+03
      1.303  0.2977E+03  0.3650E+03
      1.375  0.3055E+03  0.3869E+03
      1.447  0.3910E+03  0.4149E+03
      1.518  0.3557E+03  0.4404E+03
      1.590  0.3728E+03  0.4671E+03
      1.662  0.3656E+03  0.4933E+03
      1.733  0.3911E+03  0.5214E+03
      1.805  0.3729E+03  0.5481E+03
      1.877  0.3579E+03  0.5737E+03
      1.948  0.3885E+03  0.6016E+03
      2.020  0.4146E+03  0.6313E+03
      2.092  0.3790E+03  0.6584E+03
      2.163  0.3609E+03  0.6843E+03
      2.235  0.3748E+03  0.7111E+03
      2.307  0.3975E+03  0.7396E+03
      2.378  0.3389E+03  0.7639E+03
      2.450  0.2966E+03  0.7851E+03
      2.522  0.3387E+03  0.8094E+03
      2.593  0.3543E+03  0.8348E+03
      2.665  0.4085E+03  0.8641E+03
      2.736  0.3750E+03  0.8909E+03
      2.808  0.3788E+03  0.9181E+03
      2.880  0.4313E+03  0.9490E+03
      2.951  0.4981E+03  0.9847E+03
      3.023  0.4979E+03  0.1020E+04
      3.095  0.3714E+03  0.1047E+04
      3.166  0.2348E+03  0.1064E+04
      3.238  0.2055E+03  0.1078E+04
      3.310  0.1711E+03  0.1091E+04
      3.381  0.1389E+03  0.1101E+04
      3.453  0.1190E+03  0.1109E+04
      3.525  0.1570E+03  0.1120E+04
      3.596  0.1638E+03  0.1132E+04
      3.668  0.1015E+03  0.1139E+04
      3.740  0.9677E+02  0.1146E+04
      3.811  0.6554E+02  0.1151E+04
      3.883  0.7193E+02  0.1156E+04
      3.955  0.7363E+02  0.1162E+04
      4.026  0.6494E+02  0.1166E+04
      4.098  0.9241E+02  0.1173E+04
      4.169  0.1028E+03  0.1180E+04
      4.241  0.1149E+03  0.1188E+04
      4.313  0.7535E+02  0.1194E+04
      4.384  0.7285E+02  0.1199E+04
      4.456  0.6532E+02  0.1204E+04
      4.528  0.9185E+02  0.1210E+04
      4.599  0.9340E+02  0.1217E+04
      4.671  0.1023E+03  0.1224E+04
      4.743  0.1390E+03  0.1234E+04
      4.814  0.1386E+03  0.1244E+04
      4.886  0.7331E+02  0.1249E+04
      4.958  0.5344E+02  0.1253E+04
      5.029  0.5502E+02  0.1257E+04
      5.101  0.8639E+02  0.1263E+04
      5.173  0.1437E+03  0.1274E+04
      5.244  0.1098E+03  0.1282E+04
      5.316  0.6337E+02  0.1286E+04
      5.388  0.5915E+02  0.1290E+04
      5.459  0.6943E+02  0.1295E+04
      5.531  0.7229E+02  0.1301E+04
      5.602  0.7650E+02  0.1306E+04
      5.674  0.1097E+03  0.1314E+04
      5.746  0.1327E+03  0.1323E+04
      5.817  0.7321E+02  0.1329E+04
      5.889  0.6441E+02  0.1333E+04
      5.961  0.5879E+02  0.1337E+04
      6.032  0.3070E+02  0.1340E+04
      6.104  0.1900E+02  0.1341E+04
      6.176  0.2153E+02  0.1343E+04
      6.247  0.1695E+02  0.1344E+04
      6.319  0.9138E+01  0.1344E+04
      6.391  0.1004E+01  0.1344E+04
      6.462  0.1125E+00  0.1345E+04
      6.534  0.1854E+01  0.1345E+04
      6.606  0.1803E+01  0.1345E+04
      6.677  0.5207E+01  0.1345E+04
      6.749  0.2266E+02  0.1347E+04
      6.821  0.2617E+02  0.1349E+04
      6.892  0.1138E+02  0.1349E+04
      6.964  0.6301E+01  0.1350E+04
      7.036  0.8974E+01  0.1351E+04
      7.107  0.4668E+01  0.1351E+04
      7.179  0.2123E+02  0.1352E+04
      7.250  0.2392E+02  0.1354E+04
      7.322  0.2815E+02  0.1356E+04
      7.394  0.3115E+02  0.1358E+04
      7.465  0.3043E+02  0.1361E+04
      7.537  0.5980E+02  0.1365E+04
      7.609  0.7225E+02  0.1370E+04
      7.680  0.2688E+02  0.1372E+04
      7.752  0.5406E+02  0.1376E+04
      7.824  0.6959E+02  0.1381E+04
      7.895  0.7329E+02  0.1386E+04
      7.967  0.7526E+02  0.1391E+04
      8.039  0.6674E+02  0.1396E+04
      8.110  0.3467E+02  0.1399E+04
      8.182  0.1889E+02  0.1400E+04
      8.254  0.8489E+01  0.1401E+04
      8.325  0.9988E+01  0.1401E+04
      8.397  0.5040E+02  0.1405E+04
      8.469  0.3474E+02  0.1407E+04
      8.540  0.3149E+02  0.1410E+04
      8.612  0.9395E+02  0.1416E+04
      8.683  0.1054E+03  0.1424E+04
      8.755  0.5890E+02  0.1428E+04
      8.827  0.5168E+02  0.1432E+04
      8.898  0.3342E+02  0.1434E+04
      8.970  0.4579E+02  0.1438E+04
      9.042  0.3061E+02  0.1440E+04
      9.113  0.2233E+02  0.1441E+04
      9.185  0.1041E+02  0.1442E+04
      9.257  0.1631E+02  0.1443E+04
      9.328  0.5312E+02  0.1447E+04
      9.400  0.4983E+02  0.1451E+04
      9.472  0.5434E+02  0.1455E+04
      9.543  0.3833E+02  0.1457E+04
      9.615  0.5060E+02  0.1461E+04
      9.687  0.5004E+02  0.1465E+04
      9.758  0.4795E+02  0.1468E+04
      9.830  0.5201E+02  0.1472E+04
      9.902  0.7647E+02  0.1477E+04
      9.973  0.5556E+02  0.1481E+04
     10.045  0.1074E+03  0.1489E+04
     10.116  0.1196E+03  0.1497E+04
     10.188  0.4404E+02  0.1501E+04
     10.260  0.2822E+02  0.1503E+04
     10.331  0.4880E+02  0.1506E+04
     10.403  0.5555E+02  0.1510E+04
     10.475  0.9021E+02  0.1517E+04
     10.546  0.1093E+03  0.1524E+04
     10.618  0.1123E+03  0.1532E+04
     10.690  0.9470E+02  0.1539E+04
     10.761  0.7796E+02  0.1545E+04
     10.833  0.1072E+03  0.1552E+04
     10.905  0.9061E+02  0.1559E+04
     10.976  0.6523E+02  0.1564E+04
     11.048  0.3536E+02  0.1566E+04
     11.120  0.5475E+02  0.1570E+04
     11.191  0.5230E+02  0.1574E+04
     11.263  0.4435E+02  0.1577E+04
     11.335  0.8294E+02  0.1583E+04
     11.406  0.5399E+02  0.1587E+04
     11.478  0.5438E+02  0.1591E+04
     11.549  0.8870E+02  0.1597E+04
     11.621  0.6857E+02  0.1602E+04
     11.693  0.4679E+02  0.1605E+04
     11.764  0.1248E+02  0.1606E+04
     11.836  0.1449E+02  0.1607E+04
     11.908  0.3603E+02  0.1610E+04
     11.979  0.2144E+02  0.1611E+04
     12.051  0.3066E+01  0.1612E+04
     12.123  0.4556E+01  0.1612E+04
     12.194  0.5754E+00  0.1612E+04
     12.266  0.2330E-02  0.1612E+04
     12.338  0.2090E-06  0.1612E+04
     12.409  0.3603E-12  0.1612E+04
     12.481  0.0000E+00  0.1612E+04
     12.553  0.0000E+00  0.1612E+04
     12.624  0.0000E+00  0.1612E+04
     12.696  0.0000E+00  0.1612E+04
     12.768  0.0000E+00  0.1612E+04
     12.839  0.0000E+00  0.1612E+04
     12.911  0.0000E+00  0.1612E+04
     12.982  0.0000E+00  0.1612E+04
     13.054  0.0000E+00  0.1612E+04
