<?xml version="1.0" encoding="ISO-8859-1"?>
<modeling>
 <generator>
  <i name="program" type="string">vasp </i>
  <i name="version" type="string">5.4.4.18Apr17-6-g9f103f2a35  </i>
  <i name="subversion" type="string">(build Jul 30 2020 14:31:59) complex            parallel </i>
  <i name="platform" type="string">LinuxIFC </i>
  <i name="date" type="string">2021 02 04 </i>
  <i name="time" type="string">08:17:35 </i>
 </generator>
 <incar>
  <i type="string" name="PREC">accurate</i>
  <i type="string" name="ALGO"> normal</i>
  <i type="logical" name="ADDGRID"> T  </i>
  <i type="int" name="ISPIN">     1</i>
  <i type="int" name="NELM">   200</i>
  <i type="int" name="NELMIN">     8</i>
  <i name="EDIFF">      0.00000001</i>
  <i type="int" name="ISIF">     3</i>
  <i type="int" name="ISYM">     0</i>
  <i name="ENCUT">    650.00000000</i>
  <i type="logical" name="LREAL"> F  </i>
  <i type="int" name="ISMEAR">     0</i>
  <i name="SIGMA">      0.05000000</i>
  <i type="logical" name="LWAVE"> F  </i>
  <i type="logical" name="LASPH"> T  </i>
  <v type="int" name="KPOINT_BSE">    -1     0     0     0</v>
  <i type="int" name="NELM">   200</i>
  <i type="string" name="GGA"> ps</i>
  <i type="logical" name="LASPH"> T  </i>
 </incar>
 <structure name="primitive_cell" >
  <crystal>
   <varray name="basis" >
    <v>      14.01039598       0.00139138       0.00000000 </v>
    <v>      -0.00150196      13.76691092       0.00000000 </v>
    <v>       0.00000000       0.00000000      14.55019386 </v>
   </varray>
   <i name="volume">   2806.43958022 </i>
   <varray name="rec_basis" >
    <v>       0.07137557       0.00000779       0.00000000 </v>
    <v>      -0.00000721       0.07263794       0.00000000 </v>
    <v>       0.00000000       0.00000000       0.06872761 </v>
   </varray>
  </crystal>
  <varray name="positions" >
   <v>       0.42987898       0.17167077       0.33247735 </v>
   <v>      -0.50000000       0.00000000       0.38812698 </v>
   <v>       0.25000000       0.25000000       0.33409665 </v>
   <v>      -0.50000000       0.25000000       0.16743769 </v>
   <v>      -0.42987656       0.07832506       0.22308000 </v>
   <v>      -0.50000000       0.25000000      -0.49922898 </v>
   <v>       0.32012224       0.17167631       0.49914189 </v>
   <v>       0.32012224       0.17167631       0.16580856 </v>
   <v>      -0.42987898       0.32832923       0.33247735 </v>
   <v>       0.42987656      -0.07832506       0.22308000 </v>
   <v>       0.42987656       0.42167494       0.22308000 </v>
   <v>       0.25000000       0.00000000       0.22145206 </v>
   <v>       0.17987948       0.07832633       0.38974408 </v>
   <v>      -0.32012052       0.07832633       0.38974408 </v>
   <v>       0.32012052      -0.07832633       0.38974408 </v>
   <v>       0.32012052       0.42167367       0.38974408 </v>
   <v>      -0.42987656       0.07832506      -0.44358667 </v>
   <v>      -0.25000000       0.25000000       0.33409665 </v>
   <v>      -0.50000000      -0.50000000       0.38812698 </v>
   <v>       0.25000000       0.00000000      -0.44521461 </v>
   <v>       0.42987656      -0.07832506      -0.44358667 </v>
   <v>       0.42987656       0.42167494      -0.44358667 </v>
   <v>      -0.32012224       0.32832369       0.49914189 </v>
   <v>      -0.32012224       0.32832369       0.16580856 </v>
   <v>       0.17987776       0.32832369       0.49914189 </v>
   <v>       0.17987776       0.32832369       0.16580856 </v>
   <v>      -0.50000000       0.00000000       0.05479365 </v>
   <v>       0.42987898       0.17167077      -0.33418932 </v>
   <v>       0.42987898       0.17167077      -0.00085599 </v>
   <v>      -0.42987898      -0.17167077       0.33247735 </v>
   <v>      -0.25000000       0.00000000       0.22145206 </v>
   <v>       0.25000000      -0.50000000       0.22145206 </v>
   <v>       0.07012344       0.07832506       0.22308000 </v>
   <v>       0.17987948       0.07832633       0.05641075 </v>
   <v>      -0.32012052       0.07832633       0.05641075 </v>
   <v>       0.07012102       0.32832923       0.33247735 </v>
   <v>       0.32012052      -0.07832633       0.05641075 </v>
   <v>       0.32012052       0.42167367       0.05641075 </v>
   <v>       0.25000000       0.25000000       0.00076332 </v>
   <v>       0.25000000       0.25000000      -0.33257001 </v>
   <v>      -0.42987898       0.32832923      -0.33418932 </v>
   <v>      -0.42987898       0.32832923      -0.00085599 </v>
   <v>      -0.17987776       0.17167631       0.49914189 </v>
   <v>      -0.17987776       0.17167631       0.16580856 </v>
   <v>      -0.25000000       0.00000000      -0.44521461 </v>
   <v>       0.25000000      -0.50000000      -0.44521461 </v>
   <v>       0.07012344       0.07832506      -0.44358667 </v>
   <v>      -0.50000000      -0.50000000       0.05479365 </v>
   <v>      -0.42987656      -0.42167494       0.22308000 </v>
   <v>      -0.50000000       0.00000000      -0.27853968 </v>
   <v>       0.25000000      -0.25000000       0.33409665 </v>
   <v>      -0.50000000      -0.25000000       0.16743769 </v>
   <v>       0.17987776      -0.17167631       0.49914189 </v>
   <v>       0.17987776      -0.17167631       0.16580856 </v>
   <v>      -0.32012224      -0.17167631       0.49914189 </v>
   <v>      -0.32012224      -0.17167631       0.16580856 </v>
   <v>      -0.50000000      -0.25000000      -0.49922898 </v>
   <v>      -0.17987948       0.42167367       0.38974408 </v>
   <v>      -0.17987948      -0.07832633       0.38974408 </v>
   <v>       0.00000000       0.00000000       0.38812698 </v>
   <v>      -0.25000000      -0.50000000       0.22145206 </v>
   <v>       0.00000000       0.25000000       0.16743769 </v>
   <v>       0.00000000       0.25000000      -0.49922898 </v>
   <v>      -0.32012052      -0.42167367       0.38974408 </v>
   <v>       0.17987948      -0.42167367       0.38974408 </v>
   <v>      -0.25000000       0.25000000       0.00076332 </v>
   <v>      -0.25000000       0.25000000      -0.33257001 </v>
   <v>      -0.42987656      -0.42167494      -0.44358667 </v>
   <v>       0.17987948       0.07832633      -0.27692259 </v>
   <v>      -0.32012052       0.07832633      -0.27692259 </v>
   <v>       0.32012052      -0.07832633      -0.27692259 </v>
   <v>       0.32012052       0.42167367      -0.27692259 </v>
   <v>      -0.42987656       0.07832506      -0.11025334 </v>
   <v>       0.42987898      -0.32832923       0.33247735 </v>
   <v>       0.07012102      -0.17167077       0.33247735 </v>
   <v>      -0.07012102       0.17167077       0.33247735 </v>
   <v>      -0.42987898      -0.17167077      -0.33418932 </v>
   <v>      -0.42987898      -0.17167077      -0.00085599 </v>
   <v>      -0.25000000      -0.50000000      -0.44521461 </v>
   <v>       0.42987656      -0.07832506      -0.11025334 </v>
   <v>       0.42987656       0.42167494      -0.11025334 </v>
   <v>      -0.50000000      -0.50000000      -0.27853968 </v>
   <v>       0.07012102       0.32832923      -0.33418932 </v>
   <v>       0.07012102       0.32832923      -0.00085599 </v>
   <v>       0.25000000       0.00000000      -0.11188127 </v>
   <v>      -0.25000000      -0.25000000       0.33409665 </v>
   <v>      -0.50000000       0.25000000      -0.16589565 </v>
   <v>       0.32012224       0.17167631      -0.16752478 </v>
   <v>       0.32012224      -0.32832369       0.49914189 </v>
   <v>       0.32012224      -0.32832369       0.16580856 </v>
   <v>       0.00000000      -0.50000000       0.38812698 </v>
   <v>      -0.17987948       0.42167367       0.05641075 </v>
   <v>      -0.17987948      -0.07832633       0.05641075 </v>
   <v>       0.00000000       0.00072638       0.05479365 </v>
   <v>       0.07012344      -0.42167494       0.22308000 </v>
   <v>      -0.32012052      -0.42167367       0.05641075 </v>
   <v>       0.17987948      -0.42167367       0.05641075 </v>
   <v>       0.25000000      -0.25000000       0.00076332 </v>
   <v>      -0.07012344       0.42167494       0.22308000 </v>
   <v>      -0.07012344      -0.07832506       0.22308000 </v>
   <v>       0.25000000      -0.25000000      -0.33257001 </v>
   <v>       0.07012344      -0.42167494      -0.44358667 </v>
   <v>      -0.25000000       0.00000000      -0.11188127 </v>
   <v>       0.07012344       0.07832506      -0.11025334 </v>
   <v>       0.25000000      -0.50000000      -0.11188127 </v>
   <v>      -0.32012224       0.32832369      -0.16752478 </v>
   <v>       0.17987776       0.32832369      -0.16752478 </v>
   <v>       0.42987898      -0.32832923      -0.33418932 </v>
   <v>       0.42987898      -0.32832923      -0.00085599 </v>
   <v>       0.07012102      -0.17167077      -0.33418932 </v>
   <v>       0.07012102      -0.17167077      -0.00085599 </v>
   <v>      -0.07012344       0.42167494      -0.44358667 </v>
   <v>      -0.07012344      -0.07832506      -0.44358667 </v>
   <v>      -0.07012102       0.17167077      -0.33418932 </v>
   <v>      -0.07012102       0.17167077      -0.00085599 </v>
   <v>       0.00000000      -0.50000000       0.05479365 </v>
   <v>       0.00000000       0.00000000      -0.27853968 </v>
   <v>      -0.17987948       0.42167367      -0.27692259 </v>
   <v>      -0.17987948      -0.07832633      -0.27692259 </v>
   <v>       0.00000000      -0.25000000       0.16743769 </v>
   <v>      -0.32012052      -0.42167367      -0.27692259 </v>
   <v>       0.17987948      -0.42167367      -0.27692259 </v>
   <v>       0.00000000      -0.25000000      -0.49922898 </v>
   <v>      -0.42987656      -0.42167494      -0.11025334 </v>
   <v>      -0.25000000      -0.25000000       0.00076332 </v>
   <v>      -0.25000000      -0.25000000      -0.33257001 </v>
   <v>      -0.25000000      -0.50000000      -0.11188127 </v>
   <v>      -0.17987776       0.17167631      -0.16752478 </v>
   <v>      -0.17987776      -0.32832369       0.49914189 </v>
   <v>      -0.17987776      -0.32832369       0.16580856 </v>
   <v>      -0.50000000      -0.25000000      -0.16589565 </v>
   <v>       0.17987776      -0.17167631      -0.16752478 </v>
   <v>      -0.32012224      -0.17167631      -0.16752478 </v>
   <v>       0.00000000      -0.50000000      -0.27853968 </v>
   <v>       0.00000000       0.25000000      -0.16589565 </v>
   <v>      -0.07012102      -0.32832923       0.33247735 </v>
   <v>       0.07012344      -0.42167494      -0.11025334 </v>
   <v>      -0.07012344       0.42167494      -0.11025334 </v>
   <v>      -0.07012344      -0.07832506      -0.11025334 </v>
   <v>       0.32012224      -0.32832369      -0.16752478 </v>
   <v>      -0.07012102      -0.32832923      -0.33418932 </v>
   <v>      -0.07012102      -0.32832923      -0.00085599 </v>
   <v>       0.00000000      -0.25000000      -0.16589565 </v>
   <v>      -0.17987776      -0.32832369      -0.16752478 </v>
  </varray>
 </structure>
 <varray name="primitive_index" >
  <v type="int" >        1 </v>
  <v type="int" >      102 </v>
  <v type="int" >      137 </v>
  <v type="int" >      122 </v>
  <v type="int" >       86 </v>
  <v type="int" >      126 </v>
  <v type="int" >       65 </v>
  <v type="int" >       61 </v>
  <v type="int" >       14 </v>
  <v type="int" >       75 </v>
  <v type="int" >       73 </v>
  <v type="int" >      109 </v>
  <v type="int" >       41 </v>
  <v type="int" >       42 </v>
  <v type="int" >       31 </v>
  <v type="int" >       29 </v>
  <v type="int" >       90 </v>
  <v type="int" >      138 </v>
  <v type="int" >      104 </v>
  <v type="int" >      113 </v>
  <v type="int" >       79 </v>
  <v type="int" >       77 </v>
  <v type="int" >       54 </v>
  <v type="int" >       50 </v>
  <v type="int" >       53 </v>
  <v type="int" >       49 </v>
  <v type="int" >       98 </v>
  <v type="int" >        5 </v>
  <v type="int" >        9 </v>
  <v type="int" >       16 </v>
  <v type="int" >      110 </v>
  <v type="int" >      111 </v>
  <v type="int" >       85 </v>
  <v type="int" >       37 </v>
  <v type="int" >       38 </v>
  <v type="int" >       13 </v>
  <v type="int" >       27 </v>
  <v type="int" >       25 </v>
  <v type="int" >      133 </v>
  <v type="int" >      141 </v>
  <v type="int" >       18 </v>
  <v type="int" >       22 </v>
  <v type="int" >       66 </v>
  <v type="int" >       62 </v>
  <v type="int" >      114 </v>
  <v type="int" >      115 </v>
  <v type="int" >       89 </v>
  <v type="int" >      100 </v>
  <v type="int" >       88 </v>
  <v type="int" >      106 </v>
  <v type="int" >      139 </v>
  <v type="int" >      124 </v>
  <v type="int" >       55 </v>
  <v type="int" >       51 </v>
  <v type="int" >       56 </v>
  <v type="int" >       52 </v>
  <v type="int" >      128 </v>
  <v type="int" >       30 </v>
  <v type="int" >       32 </v>
  <v type="int" >      101 </v>
  <v type="int" >      112 </v>
  <v type="int" >      121 </v>
  <v type="int" >      125 </v>
  <v type="int" >       44 </v>
  <v type="int" >       43 </v>
  <v type="int" >      134 </v>
  <v type="int" >      142 </v>
  <v type="int" >       92 </v>
  <v type="int" >       45 </v>
  <v type="int" >       46 </v>
  <v type="int" >       35 </v>
  <v type="int" >       33 </v>
  <v type="int" >       94 </v>
  <v type="int" >        3 </v>
  <v type="int" >       15 </v>
  <v type="int" >        2 </v>
  <v type="int" >       20 </v>
  <v type="int" >       24 </v>
  <v type="int" >      116 </v>
  <v type="int" >       83 </v>
  <v type="int" >       81 </v>
  <v type="int" >      108 </v>
  <v type="int" >       17 </v>
  <v type="int" >       21 </v>
  <v type="int" >      117 </v>
  <v type="int" >      140 </v>
  <v type="int" >      130 </v>
  <v type="int" >       69 </v>
  <v type="int" >       67 </v>
  <v type="int" >       63 </v>
  <v type="int" >      103 </v>
  <v type="int" >       26 </v>
  <v type="int" >       28 </v>
  <v type="int" >       97 </v>
  <v type="int" >       87 </v>
  <v type="int" >       40 </v>
  <v type="int" >       39 </v>
  <v type="int" >      135 </v>
  <v type="int" >       74 </v>
  <v type="int" >       76 </v>
  <v type="int" >      143 </v>
  <v type="int" >       91 </v>
  <v type="int" >      118 </v>
  <v type="int" >       93 </v>
  <v type="int" >      119 </v>
  <v type="int" >       58 </v>
  <v type="int" >       57 </v>
  <v type="int" >        7 </v>
  <v type="int" >       11 </v>
  <v type="int" >       19 </v>
  <v type="int" >       23 </v>
  <v type="int" >       78 </v>
  <v type="int" >       80 </v>
  <v type="int" >        6 </v>
  <v type="int" >       10 </v>
  <v type="int" >       99 </v>
  <v type="int" >      105 </v>
  <v type="int" >       34 </v>
  <v type="int" >       36 </v>
  <v type="int" >      123 </v>
  <v type="int" >       48 </v>
  <v type="int" >       47 </v>
  <v type="int" >      127 </v>
  <v type="int" >       96 </v>
  <v type="int" >      136 </v>
  <v type="int" >      144 </v>
  <v type="int" >      120 </v>
  <v type="int" >       70 </v>
  <v type="int" >       68 </v>
  <v type="int" >       64 </v>
  <v type="int" >      132 </v>
  <v type="int" >       59 </v>
  <v type="int" >       60 </v>
  <v type="int" >      107 </v>
  <v type="int" >      129 </v>
  <v type="int" >        4 </v>
  <v type="int" >       95 </v>
  <v type="int" >       82 </v>
  <v type="int" >       84 </v>
  <v type="int" >       71 </v>
  <v type="int" >        8 </v>
  <v type="int" >       12 </v>
  <v type="int" >      131 </v>
  <v type="int" >       72 </v>
 </varray>
 <kpoints>
  <generation param="Gamma">
   <v type="int" name="divisions">       2        2        2 </v>
   <v name="usershift">      0.00000000       0.00000000       0.00000000 </v>
   <v name="genvec1">      0.50000000       0.00000000       0.00000000 </v>
   <v name="genvec2">      0.00000000       0.50000000       0.00000000 </v>
   <v name="genvec3">      0.00000000       0.00000000       0.50000000 </v>
   <v name="shift">      0.00000000       0.00000000       0.00000000 </v>
  </generation>
  <varray name="kpointlist" >
   <v>       0.00000000       0.00000000       0.00000000 </v>
   <v>       0.50000000      -0.00000000       0.00000000 </v>
   <v>       0.00000000       0.50000000       0.00000000 </v>
   <v>       0.50000000       0.50000000       0.00000000 </v>
   <v>       0.00000000       0.00000000       0.50000000 </v>
   <v>       0.50000000      -0.00000000       0.50000000 </v>
   <v>       0.00000000       0.50000000       0.50000000 </v>
   <v>       0.50000000       0.50000000       0.50000000 </v>
  </varray>
  <varray name="weights" >
   <v>       0.12500000 </v>
   <v>       0.12500000 </v>
   <v>       0.12500000 </v>
   <v>       0.12500000 </v>
   <v>       0.12500000 </v>
   <v>       0.12500000 </v>
   <v>       0.12500000 </v>
   <v>       0.12500000 </v>
  </varray>
 </kpoints>
 <parameters>
  <separator name="general" >
   <i type="string" name="SYSTEM">unknown system</i>
   <i type="logical" name="LCOMPAT"> F  </i>
  </separator>
  <separator name="electronic" >
   <i type="string" name="PREC">accura</i>
   <i name="ENMAX">    650.00000000</i>
   <i name="ENAUG">    446.84200000</i>
   <i name="EDIFF">      0.00000001</i>
   <i type="int" name="IALGO">    38</i>
   <i type="int" name="IWAVPR">    10</i>
   <i type="int" name="NBANDS">   806</i>
   <i name="NELECT">   1344.00000000</i>
   <i type="int" name="TURBO">     0</i>
   <i type="int" name="IRESTART">     0</i>
   <i type="int" name="NREBOOT">     0</i>
   <i type="int" name="NMIN">     0</i>
   <i name="EREF">      0.00000000</i>
   <separator name="electronic smearing" >
    <i type="int" name="ISMEAR">     0</i>
    <i name="SIGMA">      0.05000000</i>
    <i name="KSPACING">      0.50000000</i>
    <i type="logical" name="KGAMMA"> T  </i>
   </separator>
   <separator name="electronic projectors" >
    <i type="logical" name="LREAL"> F  </i>
    <v name="ROPT">      0.00000000      0.00000000</v>
    <i type="int" name="LMAXPAW">  -100</i>
    <i type="int" name="LMAXMIX">     2</i>
    <i type="logical" name="NLSPLINE"> F  </i>
   </separator>
   <separator name="electronic startup" >
    <i type="int" name="ISTART">     0</i>
    <i type="int" name="ICHARG">     2</i>
    <i type="int" name="INIWAV">     1</i>
   </separator>
   <separator name="electronic spin" >
    <i type="int" name="ISPIN">     1</i>
    <i type="logical" name="LNONCOLLINEAR"> F  </i>
    <v name="MAGMOM">      1.00000000      1.00000000      1.00000000      1.00000000      1.00000000      1.00000000      1.00000000      1.00000000      1.00000000      1.00000000      1.00000000      1.00000000      1.00000000      1.00000000      1.00000000      1.00000000      1.00000000      1.00000000      1.00000000      1.00000000
      1.00000000      1.00000000      1.00000000      1.00000000      1.00000000      1.00000000      1.00000000      1.00000000      1.00000000      1.00000000      1.00000000      1.00000000      1.00000000      1.00000000      1.00000000      1.00000000      1.00000000      1.00000000      1.00000000      1.00000000
      1.00000000      1.00000000      1.00000000      1.00000000      1.00000000      1.00000000      1.00000000      1.00000000      1.00000000      1.00000000      1.00000000      1.00000000      1.00000000      1.00000000      1.00000000      1.00000000      1.00000000      1.00000000      1.00000000      1.00000000
      1.00000000      1.00000000      1.00000000      1.00000000      1.00000000      1.00000000      1.00000000      1.00000000      1.00000000      1.00000000      1.00000000      1.00000000      1.00000000      1.00000000      1.00000000      1.00000000      1.00000000      1.00000000      1.00000000      1.00000000
      1.00000000      1.00000000      1.00000000      1.00000000      1.00000000      1.00000000      1.00000000      1.00000000      1.00000000      1.00000000      1.00000000      1.00000000      1.00000000      1.00000000      1.00000000      1.00000000      1.00000000      1.00000000      1.00000000      1.00000000
      1.00000000      1.00000000      1.00000000      1.00000000      1.00000000      1.00000000      1.00000000      1.00000000      1.00000000      1.00000000      1.00000000      1.00000000      1.00000000      1.00000000      1.00000000      1.00000000      1.00000000      1.00000000      1.00000000      1.00000000
      1.00000000      1.00000000      1.00000000      1.00000000      1.00000000      1.00000000      1.00000000      1.00000000      1.00000000      1.00000000      1.00000000      1.00000000      1.00000000      1.00000000      1.00000000      1.00000000      1.00000000      1.00000000      1.00000000      1.00000000
      1.00000000      1.00000000      1.00000000      1.00000000</v>
    <i name="NUPDOWN">     -1.00000000</i>
    <i type="logical" name="LSORBIT"> F  </i>
    <v name="SAXIS">      0.00000000      0.00000000      1.00000000</v>
    <i type="logical" name="LSPIRAL"> F  </i>
    <v name="QSPIRAL">      0.00000000      0.00000000      0.00000000</v>
    <i type="logical" name="LZEROZ"> F  </i>
   </separator>
   <separator name="electronic exchange-correlation" >
    <i type="logical" name="LASPH"> T  </i>
    <i type="logical" name="LMETAGGA"> F  </i>
   </separator>
   <separator name="electronic convergence" >
    <i type="int" name="NELM">   200</i>
    <i type="int" name="NELMDL">    -5</i>
    <i type="int" name="NELMIN">     8</i>
    <i name="ENINI">    650.00000000</i>
    <separator name="electronic convergence detail" >
     <i type="logical" name="LDIAG"> T  </i>
     <i type="logical" name="LSUBROT"> F  </i>
     <i name="WEIMIN">      0.00000000</i>
     <i name="EBREAK">      0.00000000</i>
     <i name="DEPER">      0.30000000</i>
     <i type="int" name="NRMM">     4</i>
     <i name="TIME">      0.40000000</i>
    </separator>
   </separator>
   <separator name="electronic mixer" >
    <i name="AMIX">      0.40000000</i>
    <i name="BMIX">      1.00000000</i>
    <i name="AMIN">      0.10000000</i>
    <i name="AMIX_MAG">      1.60000000</i>
    <i name="BMIX_MAG">      1.00000000</i>
    <separator name="electronic mixer details" >
     <i type="int" name="IMIX">     4</i>
     <i type="logical" name="MIXFIRST"> F  </i>
     <i type="int" name="MAXMIX">   -45</i>
     <i name="WC">    100.00000000</i>
     <i type="int" name="INIMIX">     1</i>
     <i type="int" name="MIXPRE">     1</i>
     <i type="int" name="MREMOVE">     5</i>
    </separator>
   </separator>
   <separator name="electronic dipolcorrection" >
    <i type="logical" name="LDIPOL"> F  </i>
    <i type="logical" name="LMONO"> F  </i>
    <i type="int" name="IDIPOL">     0</i>
    <i name="EPSILON">      1.00000000</i>
    <v name="DIPOL">   -100.00000000   -100.00000000   -100.00000000</v>
    <i name="EFIELD">      0.00000000</i>
   </separator>
  </separator>
  <separator name="grids" >
   <i type="int" name="NGX">   120</i>
   <i type="int" name="NGY">   120</i>
   <i type="int" name="NGZ">   126</i>
   <i type="int" name="NGXF">   240</i>
   <i type="int" name="NGYF">   240</i>
   <i type="int" name="NGZF">   252</i>
   <i type="logical" name="ADDGRID"> T  </i>
  </separator>
  <separator name="ionic" >
   <i type="int" name="NSW">     0</i>
   <i type="int" name="IBRION">    -1</i>
   <i type="int" name="MDALGO">     0</i>
   <i type="int" name="ISIF">     3</i>
   <i name="PSTRESS">      0.00000000</i>
   <i name="EDIFFG">      0.00000010</i>
   <i type="int" name="NFREE">     0</i>
   <i name="POTIM">      0.50000000</i>
   <i name="SMASS">     -3.00000000</i>
   <i name="SCALEE">      1.00000000</i>
  </separator>
  <separator name="ionic md" >
   <i name="TEBEG">      0.00010000</i>
   <i name="TEEND">      0.00010000</i>
   <i type="int" name="NBLOCK">     1</i>
   <i type="int" name="KBLOCK">     1</i>
   <i type="int" name="NPACO">   256</i>
   <i name="APACO">     16.00000000</i>
  </separator>
  <separator name="symmetry" >
   <i type="int" name="ISYM">     0</i>
   <i name="SYMPREC">      0.00001000</i>
  </separator>
  <separator name="dos" >
   <i type="int" name="LORBIT">     0</i>
   <v name="RWIGS">     -1.00000000     -1.00000000</v>
   <i type="int" name="NEDOS">   301</i>
   <i name="EMIN">     10.00000000</i>
   <i name="EMAX">    -10.00000000</i>
   <i name="EFERMI">      0.00000000</i>
  </separator>
  <separator name="writing" >
   <i type="int" name="NWRITE">     2</i>
   <i type="logical" name="LWAVE"> F  </i>
   <i type="logical" name="LDOWNSAMPLE"> F  </i>
   <i type="logical" name="LCHARG"> T  </i>
   <i type="logical" name="LPARD"> F  </i>
   <i type="logical" name="LVTOT"> F  </i>
   <i type="logical" name="LVHAR"> F  </i>
   <i type="logical" name="LELF"> F  </i>
   <i type="logical" name="LOPTICS"> F  </i>
   <v name="STM">      0.00000000      0.00000000      0.00000000      0.00000000      0.00000000      0.00000000      0.00000000</v>
  </separator>
  <separator name="performance" >
   <i type="int" name="NPAR">     1</i>
   <i type="int" name="NSIM">     4</i>
   <i type="int" name="NBLK">    -1</i>
   <i type="logical" name="LPLANE"> T  </i>
   <i type="logical" name="LSCALAPACK"> T  </i>
   <i type="logical" name="LSCAAWARE"> F  </i>
   <i type="logical" name="LSCALU"> F  </i>
   <i type="logical" name="LASYNC"> F  </i>
   <i type="logical" name="LORBITALREAL"> F  </i>
  </separator>
  <separator name="miscellaneous" >
   <i type="int" name="IDIOT">     3</i>
   <i type="int" name="ISPECIAL">     0</i>
   <i type="logical" name="LMUSIC"> F  </i>
   <v name="POMASS">    107.86800000     78.96000000</v>
   <v name="DARWINR">      0.00000000      0.00000000</v>
   <v name="DARWINV">      1.00000000      1.00000000</v>
   <i type="logical" name="LCORR"> T  </i>
  </separator>
  <i type="logical" name="GGA_COMPAT"> T  </i>
  <i type="logical" name="LBERRY"> F  </i>
  <i type="int" name="ICORELEVEL">     0</i>
  <i type="logical" name="LDAU"> F  </i>
  <i type="int" name="I_CONSTRAINED_M">     0</i>
  <separator name="electronic exchange-correlation" >
   <i type="string" name="GGA">PS</i>
   <i type="int" name="VOSKOWN">     0</i>
   <i type="logical" name="LHFCALC"> F  </i>
   <i type="string" name="PRECFOCK"></i>
   <i type="logical" name="LSYMGRAD"> F  </i>
   <i type="logical" name="LHFONE"> F  </i>
   <i type="logical" name="LRHFCALC"> F  </i>
   <i type="logical" name="LTHOMAS"> F  </i>
   <i type="logical" name="LMODELHF"> F  </i>
   <i name="ENCUT4O">     -1.00000000</i>
   <i type="int" name="EXXOEP">     0</i>
   <i type="int" name="FOURORBIT">     0</i>
   <i name="AEXX">      0.00000000</i>
   <i name="HFALPHA">      0.00000000</i>
   <i name="MCALPHA">      0.00000000</i>
   <i name="ALDAX">      1.00000000</i>
   <i name="AGGAX">      1.00000000</i>
   <i name="ALDAC">      1.00000000</i>
   <i name="AGGAC">      1.00000000</i>
   <i type="int" name="NKREDX">     1</i>
   <i type="int" name="NKREDY">     1</i>
   <i type="int" name="NKREDZ">     1</i>
   <i type="logical" name="SHIFTRED"> F  </i>
   <i type="logical" name="ODDONLY"> F  </i>
   <i type="logical" name="EVENONLY"> F  </i>
   <i type="int" name="LMAXFOCK">     0</i>
   <i type="int" name="NMAXFOCKAE">     0</i>
   <i type="logical" name="LFOCKAEDFT"> F  </i>
   <i name="HFSCREEN">      0.00000000</i>
   <i name="HFSCREENC">      0.00000000</i>
   <i type="int" name="NBANDSGWLOW">     0</i>
  </separator>
  <separator name="vdW DFT" >
   <i type="logical" name="LUSE_VDW"> F  </i>
   <i name="Zab_VDW">     -0.84910000</i>
   <i name="PARAM1">      0.12340000</i>
   <i name="PARAM2">      1.00000000</i>
   <i name="PARAM3">      0.00000000</i>
  </separator>
  <separator name="model GW" >
   <i type="int" name="MODEL_GW">     0</i>
   <i name="MODEL_EPS0">     11.69349825</i>
   <i name="MODEL_ALPHA">      1.00000000</i>
  </separator>
  <separator name="linear response parameters" >
   <i type="logical" name="LEPSILON"> F  </i>
   <i type="logical" name="LRPA"> F  </i>
   <i type="logical" name="LNABLA"> F  </i>
   <i type="logical" name="LVEL"> F  </i>
   <i type="int" name="KINTER">     0</i>
   <i name="CSHIFT">      0.10000000</i>
   <i name="OMEGAMAX">     -1.00000000</i>
   <i name="DEG_THRESHOLD">      0.00200000</i>
   <i name="RTIME">     -0.10000000</i>
   <i name="WPLASMAI">      0.00000000</i>
   <v name="DFIELD">      0.00000000      0.00000000      0.00000000</v>
   <v name="WPLASMA">      0.00000000      0.00000000      0.00000000      0.00000000      0.00000000      0.00000000      0.00000000      0.00000000      0.00000000</v>
  </separator>
  <separator name="orbital magnetization" >
   <i type="logical" name="NUCIND"> F  </i>
   <v name="MAGPOS">      0.00000000      0.00000000      0.00000000</v>
   <i type="logical" name="LNICSALL"> T  </i>
   <i type="logical" name="ORBITALMAG"> F  </i>
   <i type="logical" name="LMAGBLOCH"> F  </i>
   <i type="logical" name="LCHIMAG"> F  </i>
   <i type="logical" name="LGAUGE"> T  </i>
   <i type="int" name="MAGATOM">     0</i>
   <v name="MAGDIPOL">      0.00000000      0.00000000      0.00000000</v>
   <v name="AVECCONST">      0.00000000      0.00000000      0.00000000</v>
  </separator>
  <separator name="response functions" >
   <i type="logical" name="LADDER"> F  </i>
   <i type="logical" name="LRPAFORCE"> F  </i>
   <i type="logical" name="LFXC"> F  </i>
   <i type="logical" name="LHARTREE"> T  </i>
   <i type="int" name="IBSE">     0</i>
   <v type="int" name="KPOINT">    -1     0     0     0</v>
   <i type="logical" name="LTCTE"> F  </i>
   <i type="logical" name="LTETE"> F  </i>
   <i type="logical" name="LTRIPLET"> F  </i>
   <i type="logical" name="LFXCEPS"> F  </i>
   <i type="logical" name="LFXHEG"> F  </i>
   <i type="int" name="NATURALO">     2</i>
   <i type="logical" name="L2ORDER"> F  </i>
   <i type="logical" name="LMP2LT"> F  </i>
   <i type="logical" name="LUSEW"> F  </i>
   <i name="ENCUTGW">     -2.00000000</i>
   <i name="ENCUTGWSOFT">     -2.00000000</i>
   <i name="ENCUTLF">     -1.00000000</i>
   <i type="int" name="LMAXMP2">    -1</i>
   <i name="SCISSOR">      0.00000000</i>
   <i type="int" name="NOMEGA">     0</i>
   <i type="int" name="NOMEGAR">     0</i>
   <i type="int" name="NBANDSGW">    -1</i>
   <i type="int" name="NBANDSO">    -1</i>
   <i type="int" name="NBANDSV">    -1</i>
   <i type="int" name="NELM">   200</i>
   <i type="int" name="NELMHF">     1</i>
   <i type="int" name="DIM">     3</i>
   <i type="int" name="ANTIRES">     0</i>
   <i name="OMEGAMAX">    -30.00000000</i>
   <i name="OMEGAMIN">    -30.00000000</i>
   <i name="OMEGATL">   -200.00000000</i>
   <i type="int" name="OMEGAGRID">   140</i>
   <i name="CSHIFT">     -0.10000000</i>
   <i type="logical" name="SELFENERGY"> F  </i>
   <i type="logical" name="LSPECTRAL"> F  </i>
   <i type="logical" name="LSPECTRALGW"> F  </i>
   <i type="logical" name="LSINGLES"> F  </i>
   <i type="logical" name="LFERMIGW"> F  </i>
   <i type="logical" name="ODDONLYGW"> F  </i>
   <i type="logical" name="EVENONLYGW"> F  </i>
   <i type="int" name="NKREDLFX">     1</i>
   <i type="int" name="NKREDLFY">     1</i>
   <i type="int" name="NKREDLFZ">     1</i>
   <i type="int" name="MAXMEM">  2800</i>
   <i type="int" name="TELESCOPE">     0</i>
   <i type="int" name="TAUPAR">     1</i>
   <i type="int" name="OMEGAPAR">    -1</i>
   <i name="LAMBDA">      1.00000000</i>
  </separator>
  <separator name="External order field" >
   <i name="OFIELD_KAPPA">      0.00000000</i>
   <v name="OFIELD_K">      0.00000000      0.00000000      0.00000000</v>
   <i name="OFIELD_Q6_NEAR">      0.00000000</i>
   <i name="OFIELD_Q6_FAR">      0.00000000</i>
   <i name="OFIELD_A">      0.00000000</i>
  </separator>
 </parameters>
 <atominfo>
  <atoms>     144 </atoms>
  <types>       2 </types>
  <array name="atoms" >
   <dimension dim="1">ion</dimension>
   <field type="string">element</field>
   <field type="int">atomtype</field>
   <set>
    <rc><c>Ag</c><c>   1</c></rc>
    <rc><c>Ag</c><c>   1</c></rc>
    <rc><c>Ag</c><c>   1</c></rc>
    <rc><c>Ag</c><c>   1</c></rc>
    <rc><c>Ag</c><c>   1</c></rc>
    <rc><c>Ag</c><c>   1</c></rc>
    <rc><c>Ag</c><c>   1</c></rc>
    <rc><c>Ag</c><c>   1</c></rc>
    <rc><c>Ag</c><c>   1</c></rc>
    <rc><c>Ag</c><c>   1</c></rc>
    <rc><c>Ag</c><c>   1</c></rc>
    <rc><c>Ag</c><c>   1</c></rc>
    <rc><c>Ag</c><c>   1</c></rc>
    <rc><c>Ag</c><c>   1</c></rc>
    <rc><c>Ag</c><c>   1</c></rc>
    <rc><c>Ag</c><c>   1</c></rc>
    <rc><c>Ag</c><c>   1</c></rc>
    <rc><c>Ag</c><c>   1</c></rc>
    <rc><c>Ag</c><c>   1</c></rc>
    <rc><c>Ag</c><c>   1</c></rc>
    <rc><c>Ag</c><c>   1</c></rc>
    <rc><c>Ag</c><c>   1</c></rc>
    <rc><c>Ag</c><c>   1</c></rc>
    <rc><c>Ag</c><c>   1</c></rc>
    <rc><c>Ag</c><c>   1</c></rc>
    <rc><c>Ag</c><c>   1</c></rc>
    <rc><c>Ag</c><c>   1</c></rc>
    <rc><c>Ag</c><c>   1</c></rc>
    <rc><c>Ag</c><c>   1</c></rc>
    <rc><c>Ag</c><c>   1</c></rc>
    <rc><c>Ag</c><c>   1</c></rc>
    <rc><c>Ag</c><c>   1</c></rc>
    <rc><c>Ag</c><c>   1</c></rc>
    <rc><c>Ag</c><c>   1</c></rc>
    <rc><c>Ag</c><c>   1</c></rc>
    <rc><c>Ag</c><c>   1</c></rc>
    <rc><c>Ag</c><c>   1</c></rc>
    <rc><c>Ag</c><c>   1</c></rc>
    <rc><c>Ag</c><c>   1</c></rc>
    <rc><c>Ag</c><c>   1</c></rc>
    <rc><c>Ag</c><c>   1</c></rc>
    <rc><c>Ag</c><c>   1</c></rc>
    <rc><c>Ag</c><c>   1</c></rc>
    <rc><c>Ag</c><c>   1</c></rc>
    <rc><c>Ag</c><c>   1</c></rc>
    <rc><c>Ag</c><c>   1</c></rc>
    <rc><c>Ag</c><c>   1</c></rc>
    <rc><c>Ag</c><c>   1</c></rc>
    <rc><c>Ag</c><c>   1</c></rc>
    <rc><c>Ag</c><c>   1</c></rc>
    <rc><c>Ag</c><c>   1</c></rc>
    <rc><c>Ag</c><c>   1</c></rc>
    <rc><c>Ag</c><c>   1</c></rc>
    <rc><c>Ag</c><c>   1</c></rc>
    <rc><c>Ag</c><c>   1</c></rc>
    <rc><c>Ag</c><c>   1</c></rc>
    <rc><c>Ag</c><c>   1</c></rc>
    <rc><c>Ag</c><c>   1</c></rc>
    <rc><c>Ag</c><c>   1</c></rc>
    <rc><c>Ag</c><c>   1</c></rc>
    <rc><c>Ag</c><c>   1</c></rc>
    <rc><c>Ag</c><c>   1</c></rc>
    <rc><c>Ag</c><c>   1</c></rc>
    <rc><c>Ag</c><c>   1</c></rc>
    <rc><c>Ag</c><c>   1</c></rc>
    <rc><c>Ag</c><c>   1</c></rc>
    <rc><c>Ag</c><c>   1</c></rc>
    <rc><c>Ag</c><c>   1</c></rc>
    <rc><c>Ag</c><c>   1</c></rc>
    <rc><c>Ag</c><c>   1</c></rc>
    <rc><c>Ag</c><c>   1</c></rc>
    <rc><c>Ag</c><c>   1</c></rc>
    <rc><c>Ag</c><c>   1</c></rc>
    <rc><c>Ag</c><c>   1</c></rc>
    <rc><c>Ag</c><c>   1</c></rc>
    <rc><c>Ag</c><c>   1</c></rc>
    <rc><c>Ag</c><c>   1</c></rc>
    <rc><c>Ag</c><c>   1</c></rc>
    <rc><c>Ag</c><c>   1</c></rc>
    <rc><c>Ag</c><c>   1</c></rc>
    <rc><c>Ag</c><c>   1</c></rc>
    <rc><c>Ag</c><c>   1</c></rc>
    <rc><c>Ag</c><c>   1</c></rc>
    <rc><c>Ag</c><c>   1</c></rc>
    <rc><c>Ag</c><c>   1</c></rc>
    <rc><c>Ag</c><c>   1</c></rc>
    <rc><c>Ag</c><c>   1</c></rc>
    <rc><c>Ag</c><c>   1</c></rc>
    <rc><c>Ag</c><c>   1</c></rc>
    <rc><c>Ag</c><c>   1</c></rc>
    <rc><c>Ag</c><c>   1</c></rc>
    <rc><c>Ag</c><c>   1</c></rc>
    <rc><c>Ag</c><c>   1</c></rc>
    <rc><c>Ag</c><c>   1</c></rc>
    <rc><c>Ag</c><c>   1</c></rc>
    <rc><c>Ag</c><c>   1</c></rc>
    <rc><c>Se</c><c>   2</c></rc>
    <rc><c>Se</c><c>   2</c></rc>
    <rc><c>Se</c><c>   2</c></rc>
    <rc><c>Se</c><c>   2</c></rc>
    <rc><c>Se</c><c>   2</c></rc>
    <rc><c>Se</c><c>   2</c></rc>
    <rc><c>Se</c><c>   2</c></rc>
    <rc><c>Se</c><c>   2</c></rc>
    <rc><c>Se</c><c>   2</c></rc>
    <rc><c>Se</c><c>   2</c></rc>
    <rc><c>Se</c><c>   2</c></rc>
    <rc><c>Se</c><c>   2</c></rc>
    <rc><c>Se</c><c>   2</c></rc>
    <rc><c>Se</c><c>   2</c></rc>
    <rc><c>Se</c><c>   2</c></rc>
    <rc><c>Se</c><c>   2</c></rc>
    <rc><c>Se</c><c>   2</c></rc>
    <rc><c>Se</c><c>   2</c></rc>
    <rc><c>Se</c><c>   2</c></rc>
    <rc><c>Se</c><c>   2</c></rc>
    <rc><c>Se</c><c>   2</c></rc>
    <rc><c>Se</c><c>   2</c></rc>
    <rc><c>Se</c><c>   2</c></rc>
    <rc><c>Se</c><c>   2</c></rc>
    <rc><c>Se</c><c>   2</c></rc>
    <rc><c>Se</c><c>   2</c></rc>
    <rc><c>Se</c><c>   2</c></rc>
    <rc><c>Se</c><c>   2</c></rc>
    <rc><c>Se</c><c>   2</c></rc>
    <rc><c>Se</c><c>   2</c></rc>
    <rc><c>Se</c><c>   2</c></rc>
    <rc><c>Se</c><c>   2</c></rc>
    <rc><c>Se</c><c>   2</c></rc>
    <rc><c>Se</c><c>   2</c></rc>
    <rc><c>Se</c><c>   2</c></rc>
    <rc><c>Se</c><c>   2</c></rc>
    <rc><c>Se</c><c>   2</c></rc>
    <rc><c>Se</c><c>   2</c></rc>
    <rc><c>Se</c><c>   2</c></rc>
    <rc><c>Se</c><c>   2</c></rc>
    <rc><c>Se</c><c>   2</c></rc>
    <rc><c>Se</c><c>   2</c></rc>
    <rc><c>Se</c><c>   2</c></rc>
    <rc><c>Se</c><c>   2</c></rc>
    <rc><c>Se</c><c>   2</c></rc>
    <rc><c>Se</c><c>   2</c></rc>
    <rc><c>Se</c><c>   2</c></rc>
    <rc><c>Se</c><c>   2</c></rc>
   </set>
  </array>
  <array name="atomtypes" >
   <dimension dim="1">type</dimension>
   <field type="int">atomspertype</field>
   <field type="string">element</field>
   <field>mass</field>
   <field>valence</field>
   <field type="string">pseudopotential</field>
   <set>
    <rc><c>  96</c><c>Ag</c><c>    107.86800000</c><c>     11.00000000</c><c>  PAW_PBE Ag 02Apr2005                  </c></rc>
    <rc><c>  48</c><c>Se</c><c>     78.96000000</c><c>      6.00000000</c><c>  PAW_PBE Se 06Sep2000                  </c></rc>
   </set>
  </array>
 </atominfo>
 <structure name="initialpos" >
  <crystal>
   <varray name="basis" >
    <v>      14.01039598       0.00139138       0.00000000 </v>
    <v>      -0.00150196      13.76691092       0.00000000 </v>
    <v>       0.00000000       0.00000000      14.55019386 </v>
   </varray>
   <i name="volume">   2806.43958022 </i>
   <varray name="rec_basis" >
    <v>       0.07137557       0.00000779       0.00000000 </v>
    <v>      -0.00000721       0.07263794       0.00000000 </v>
    <v>       0.00000000       0.00000000       0.06872761 </v>
   </varray>
  </crystal>
  <varray name="positions" >
   <v>       0.42987898       0.17167077       0.33247735 </v>
   <v>       0.92987898       0.17167077       0.33247735 </v>
   <v>       0.42987898       0.67167077       0.33247735 </v>
   <v>       0.92987898       0.67167077       0.33247735 </v>
   <v>       0.42987898       0.17167077       0.66581068 </v>
   <v>       0.92987898       0.17167077       0.66581068 </v>
   <v>       0.42987898       0.67167077       0.66581068 </v>
   <v>       0.92987898       0.67167077       0.66581068 </v>
   <v>       0.42987898       0.17167077       0.99914401 </v>
   <v>       0.92987898       0.17167077       0.99914401 </v>
   <v>       0.42987898       0.67167077       0.99914401 </v>
   <v>       0.92987898       0.67167077       0.99914401 </v>
   <v>       0.07012102       0.32832923       0.33247735 </v>
   <v>       0.57012102       0.32832923       0.33247735 </v>
   <v>       0.07012102       0.82832923       0.33247735 </v>
   <v>       0.57012102       0.82832923       0.33247735 </v>
   <v>       0.07012102       0.32832923       0.66581068 </v>
   <v>       0.57012102       0.32832923       0.66581068 </v>
   <v>       0.07012102       0.82832923       0.66581068 </v>
   <v>       0.57012102       0.82832923       0.66581068 </v>
   <v>       0.07012102       0.32832923       0.99914401 </v>
   <v>       0.57012102       0.32832923       0.99914401 </v>
   <v>       0.07012102       0.82832923       0.99914401 </v>
   <v>       0.57012102       0.82832923       0.99914401 </v>
   <v>       0.32012053       0.42167367       0.05641075 </v>
   <v>       0.82012053       0.42167367       0.05641075 </v>
   <v>       0.32012053       0.92167367       0.05641075 </v>
   <v>       0.82012053       0.92167367       0.05641075 </v>
   <v>       0.32012053       0.42167367       0.38974408 </v>
   <v>       0.82012053       0.42167367       0.38974408 </v>
   <v>       0.32012053       0.92167367       0.38974408 </v>
   <v>       0.82012053       0.92167367       0.38974408 </v>
   <v>       0.32012053       0.42167367       0.72307741 </v>
   <v>       0.82012053       0.42167367       0.72307741 </v>
   <v>       0.32012053       0.92167367       0.72307741 </v>
   <v>       0.82012053       0.92167367       0.72307741 </v>
   <v>       0.17987947       0.07832633       0.05641075 </v>
   <v>       0.67987947       0.07832633       0.05641075 </v>
   <v>       0.17987947       0.57832633       0.05641075 </v>
   <v>       0.67987947       0.57832633       0.05641075 </v>
   <v>       0.17987947       0.07832633       0.38974408 </v>
   <v>       0.67987947       0.07832633       0.38974408 </v>
   <v>       0.17987947       0.57832633       0.38974408 </v>
   <v>       0.67987947       0.57832633       0.38974408 </v>
   <v>       0.17987947       0.07832633       0.72307741 </v>
   <v>       0.67987947       0.07832633       0.72307741 </v>
   <v>       0.17987947       0.57832633       0.72307741 </v>
   <v>       0.67987947       0.57832633       0.72307741 </v>
   <v>       0.17987776       0.32832369       0.16580856 </v>
   <v>       0.67987776       0.32832369       0.16580856 </v>
   <v>       0.17987776       0.82832369       0.16580856 </v>
   <v>       0.67987776       0.82832369       0.16580856 </v>
   <v>       0.17987776       0.32832369       0.49914189 </v>
   <v>       0.67987776       0.32832369       0.49914189 </v>
   <v>       0.17987776       0.82832369       0.49914189 </v>
   <v>       0.67987776       0.82832369       0.49914189 </v>
   <v>       0.17987776       0.32832369       0.83247522 </v>
   <v>       0.67987776       0.32832369       0.83247522 </v>
   <v>       0.17987776       0.82832369       0.83247522 </v>
   <v>       0.67987776       0.82832369       0.83247522 </v>
   <v>       0.32012224       0.17167631       0.16580856 </v>
   <v>       0.82012224       0.17167631       0.16580856 </v>
   <v>       0.32012224       0.67167631       0.16580856 </v>
   <v>       0.82012224       0.67167631       0.16580856 </v>
   <v>       0.32012224       0.17167631       0.49914189 </v>
   <v>       0.82012224       0.17167631       0.49914189 </v>
   <v>       0.32012224       0.67167631       0.49914189 </v>
   <v>       0.82012224       0.67167631       0.49914189 </v>
   <v>       0.32012224       0.17167631       0.83247522 </v>
   <v>       0.82012224       0.17167631       0.83247522 </v>
   <v>       0.32012224       0.67167631       0.83247522 </v>
   <v>       0.82012224       0.67167631       0.83247522 </v>
   <v>       0.42987656       0.42167494       0.22308000 </v>
   <v>       0.92987656       0.42167494       0.22308000 </v>
   <v>       0.42987656       0.92167494       0.22308000 </v>
   <v>       0.92987656       0.92167494       0.22308000 </v>
   <v>       0.42987656       0.42167494       0.55641333 </v>
   <v>       0.92987656       0.42167494       0.55641333 </v>
   <v>       0.42987656       0.92167494       0.55641333 </v>
   <v>       0.92987656       0.92167494       0.55641333 </v>
   <v>       0.42987656       0.42167494       0.88974666 </v>
   <v>       0.92987656       0.42167494       0.88974666 </v>
   <v>       0.42987656       0.92167494       0.88974666 </v>
   <v>       0.92987656       0.92167494       0.88974666 </v>
   <v>       0.07012344       0.07832506       0.22308000 </v>
   <v>       0.57012344       0.07832506       0.22308000 </v>
   <v>       0.07012344       0.57832506       0.22308000 </v>
   <v>       0.57012344       0.57832506       0.22308000 </v>
   <v>       0.07012344       0.07832506       0.55641333 </v>
   <v>       0.57012344       0.07832506       0.55641333 </v>
   <v>       0.07012344       0.57832506       0.55641333 </v>
   <v>       0.57012344       0.57832506       0.55641333 </v>
   <v>       0.07012344       0.07832506       0.88974666 </v>
   <v>       0.57012344       0.07832506       0.88974666 </v>
   <v>       0.07012344       0.57832506       0.88974666 </v>
   <v>       0.57012344       0.57832506       0.88974666 </v>
   <v>       0.00000000       0.00072638       0.05479365 </v>
   <v>       0.50000000       0.00000000       0.05479365 </v>
   <v>       0.00000000       0.50000000       0.05479365 </v>
   <v>       0.50000000       0.50000000       0.05479365 </v>
   <v>       0.00000000       0.00000000       0.38812698 </v>
   <v>       0.50000000       0.00000000       0.38812698 </v>
   <v>       0.00000000       0.50000000       0.38812698 </v>
   <v>       0.50000000       0.50000000       0.38812698 </v>
   <v>       0.00000000       0.00000000       0.72146032 </v>
   <v>       0.50000000       0.00000000       0.72146032 </v>
   <v>       0.00000000       0.50000000       0.72146032 </v>
   <v>       0.50000000       0.50000000       0.72146032 </v>
   <v>       0.25000000       0.00000000       0.22145206 </v>
   <v>       0.75000000       0.00000000       0.22145206 </v>
   <v>       0.25000000       0.50000000       0.22145206 </v>
   <v>       0.75000000       0.50000000       0.22145206 </v>
   <v>       0.25000000       0.00000000       0.55478539 </v>
   <v>       0.75000000       0.00000000       0.55478539 </v>
   <v>       0.25000000       0.50000000       0.55478539 </v>
   <v>       0.75000000       0.50000000       0.55478539 </v>
   <v>       0.25000000       0.00000000       0.88811873 </v>
   <v>       0.75000000       0.00000000       0.88811873 </v>
   <v>       0.25000000       0.50000000       0.88811873 </v>
   <v>       0.75000000       0.50000000       0.88811873 </v>
   <v>       0.00000000       0.25000000       0.16743769 </v>
   <v>       0.50000000       0.25000000       0.16743769 </v>
   <v>       0.00000000       0.75000000       0.16743769 </v>
   <v>       0.50000000       0.75000000       0.16743769 </v>
   <v>       0.00000000       0.25000000       0.50077102 </v>
   <v>       0.50000000       0.25000000       0.50077102 </v>
   <v>       0.00000000       0.75000000       0.50077102 </v>
   <v>       0.50000000       0.75000000       0.50077102 </v>
   <v>       0.00000000       0.25000000       0.83410435 </v>
   <v>       0.50000000       0.25000000       0.83410435 </v>
   <v>       0.00000000       0.75000000       0.83410435 </v>
   <v>       0.50000000       0.75000000       0.83410435 </v>
   <v>       0.25000000       0.25000000       0.00076332 </v>
   <v>       0.75000000       0.25000000       0.00076332 </v>
   <v>       0.25000000       0.75000000       0.00076332 </v>
   <v>       0.75000000       0.75000000       0.00076332 </v>
   <v>       0.25000000       0.25000000       0.33409665 </v>
   <v>       0.75000000       0.25000000       0.33409665 </v>
   <v>       0.25000000       0.75000000       0.33409665 </v>
   <v>       0.75000000       0.75000000       0.33409665 </v>
   <v>       0.25000000       0.25000000       0.66742999 </v>
   <v>       0.75000000       0.25000000       0.66742999 </v>
   <v>       0.25000000       0.75000000       0.66742999 </v>
   <v>       0.75000000       0.75000000       0.66742999 </v>
  </varray>
 </structure>
 <calculation>
  <scstep>
   <time name="dav">  932.53  934.97</time>
   <time name="total">  935.89  938.35</time>
   <energy>
    <i name="alphaZ">   4890.97834259 </i>
    <i name="ewald"> -98843.16965160 </i>
    <i name="hartreedc"> -25789.10721728 </i>
    <i name="XCdc">   -889.86230872 </i>
    <i name="pawpsdc"> 106286.73805879 </i>
    <i name="pawaedc">-101298.59693205 </i>
    <i name="eentropy">     -0.04315356 </i>
    <i name="bandstr">  14366.15209260 </i>
    <i name="atom"> 111881.97810035 </i>
    <i name="e_fr_energy">  10605.06733113 </i>
    <i name="e_wo_entrp">  10605.11048468 </i>
    <i name="e_0_energy">  10605.08890790 </i>
   </energy>
  </scstep>
  <scstep>
   <time name="dav">  961.35  963.89</time>
   <time name="total">  961.36  963.90</time>
   <energy>
    <i name="e_fr_energy">    151.05758382 </i>
    <i name="e_wo_entrp">    151.06983342 </i>
    <i name="e_0_energy">    151.06370862 </i>
   </energy>
  </scstep>
  <scstep>
   <time name="dav"> 1005.86 1008.48</time>
   <time name="total"> 1005.87 1008.49</time>
   <energy>
    <i name="e_fr_energy">   -517.93663493 </i>
    <i name="e_wo_entrp">   -517.93051610 </i>
    <i name="e_0_energy">   -517.93357551 </i>
   </energy>
  </scstep>
  <scstep>
   <time name="dav">  992.48  995.04</time>
   <time name="total">  992.49  995.05</time>
   <energy>
    <i name="e_fr_energy">   -535.41614612 </i>
    <i name="e_wo_entrp">   -535.41068609 </i>
    <i name="e_0_energy">   -535.41341610 </i>
   </energy>
  </scstep>
  <scstep>
   <time name="dav">  996.06  998.56</time>
   <time name="total"> 1010.55 1013.09</time>
   <energy>
    <i name="e_fr_energy">   -535.67097527 </i>
    <i name="e_wo_entrp">   -535.66550730 </i>
    <i name="e_0_energy">   -535.66824129 </i>
   </energy>
  </scstep>
  <scstep>
   <time name="dav">  965.75  968.17</time>
   <time name="total">  983.71  986.18</time>
   <energy>
    <i name="e_fr_energy">   -504.98469730 </i>
    <i name="e_wo_entrp">   -504.96921423 </i>
    <i name="e_0_energy">   -504.97695576 </i>
   </energy>
  </scstep>
  <scstep>
   <time name="dav">  954.00  956.40</time>
   <time name="total">  971.59  974.04</time>
   <energy>
    <i name="e_fr_energy">   -505.65716955 </i>
    <i name="e_wo_entrp">   -505.64141424 </i>
    <i name="e_0_energy">   -505.64929190 </i>
   </energy>
  </scstep>
  <scstep>
   <time name="dav">  976.78  979.19</time>
   <time name="total">  994.47  996.92</time>
   <energy>
    <i name="e_fr_energy">   -505.18186417 </i>
    <i name="e_wo_entrp">   -505.16725439 </i>
    <i name="e_0_energy">   -505.17455928 </i>
   </energy>
  </scstep>
  <scstep>
   <time name="dav">  956.99  959.47</time>
   <time name="total">  974.79  977.32</time>
   <energy>
    <i name="e_fr_energy">   -505.12619416 </i>
    <i name="e_wo_entrp">   -505.11097285 </i>
    <i name="e_0_energy">   -505.11858351 </i>
   </energy>
  </scstep>
  <scstep>
   <time name="dav">  963.05  965.44</time>
   <time name="total">  980.88  983.31</time>
   <energy>
    <i name="e_fr_energy">   -505.12832702 </i>
    <i name="e_wo_entrp">   -505.11304787 </i>
    <i name="e_0_energy">   -505.12068745 </i>
   </energy>
  </scstep>
  <scstep>
   <time name="dav">  975.72  978.11</time>
   <time name="total">  994.15  996.59</time>
   <energy>
    <i name="e_fr_energy">   -505.12820182 </i>
    <i name="e_wo_entrp">   -505.11299084 </i>
    <i name="e_0_energy">   -505.12059633 </i>
   </energy>
  </scstep>
  <scstep>
   <time name="dav">  972.56  974.86</time>
   <time name="total">  991.64  993.98</time>
   <energy>
    <i name="e_fr_energy">   -505.12815973 </i>
    <i name="e_wo_entrp">   -505.11292852 </i>
    <i name="e_0_energy">   -505.12054412 </i>
   </energy>
  </scstep>
  <scstep>
   <time name="dav"> 1017.24 1019.85</time>
   <time name="total"> 1037.13 1039.79</time>
   <energy>
    <i name="e_fr_energy">   -505.12815978 </i>
    <i name="e_wo_entrp">   -505.11293149 </i>
    <i name="e_0_energy">   -505.12054563 </i>
   </energy>
  </scstep>
  <scstep>
   <time name="dav">  967.84  970.40</time>
   <time name="total">  986.92  989.54</time>
   <energy>
    <i name="e_fr_energy">   -505.12815865 </i>
    <i name="e_wo_entrp">   -505.11293145 </i>
    <i name="e_0_energy">   -505.12054505 </i>
   </energy>
  </scstep>
  <scstep>
   <time name="dav">  993.33  995.98</time>
   <time name="total"> 1012.00 1014.70</time>
   <energy>
    <i name="e_fr_energy">   -505.12815713 </i>
    <i name="e_wo_entrp">   -505.11293016 </i>
    <i name="e_0_energy">   -505.12054364 </i>
   </energy>
  </scstep>
  <scstep>
   <time name="dav">  900.55  902.95</time>
   <time name="total">  918.12  920.60</time>
   <energy>
    <i name="e_fr_energy">   -505.12815715 </i>
    <i name="e_wo_entrp">   -505.11293037 </i>
    <i name="e_0_energy">   -505.12054376 </i>
   </energy>
  </scstep>
  <scstep>
   <time name="dav">  601.43  602.97</time>
   <time name="total">  619.56  621.16</time>
   <energy>
    <i name="e_fr_energy">   -505.12815716 </i>
    <i name="e_wo_entrp">   -505.11293031 </i>
    <i name="e_0_energy">   -505.12054374 </i>
   </energy>
  </scstep>
  <scstep>
   <time name="dav">  588.30  589.81</time>
   <time name="total">  606.63  608.19</time>
   <energy>
    <i name="e_fr_energy">   -505.12815715 </i>
    <i name="e_wo_entrp">   -505.11293027 </i>
    <i name="e_0_energy">   -505.12054371 </i>
   </energy>
  </scstep>
  <scstep>
   <time name="dav">  589.72  591.37</time>
   <time name="total">  593.05  594.71</time>
   <energy>
    <i name="alphaZ">   4890.97834259 </i>
    <i name="ewald"> -98843.16965160 </i>
    <i name="hartreedc"> -24657.93550766 </i>
    <i name="XCdc">   -922.44878527 </i>
    <i name="pawpsdc"> 122252.64464062 </i>
    <i name="pawaedc">-117444.90370925 </i>
    <i name="eentropy">     -0.01522689 </i>
    <i name="bandstr">   2337.74363996 </i>
    <i name="atom"> 111881.97810035 </i>
    <i name="e_fr_energy">   -505.12815715 </i>
    <i name="e_wo_entrp">   -505.11293026 </i>
    <i name="e_0_energy">   -505.12054370 </i>
   </energy>
  </scstep>
  <structure>
   <crystal>
    <varray name="basis" >
     <v>      14.01039598       0.00139138       0.00000000 </v>
     <v>      -0.00150196      13.76691092       0.00000000 </v>
     <v>       0.00000000       0.00000000      14.55019386 </v>
    </varray>
    <i name="volume">   2806.43958022 </i>
    <varray name="rec_basis" >
     <v>       0.07137557       0.00000779       0.00000000 </v>
     <v>      -0.00000721       0.07263794       0.00000000 </v>
     <v>       0.00000000       0.00000000       0.06872761 </v>
    </varray>
   </crystal>
   <varray name="positions" >
    <v>       0.42987898       0.17167077       0.33247735 </v>
    <v>       0.92987898       0.17167077       0.33247735 </v>
    <v>       0.42987898       0.67167077       0.33247735 </v>
    <v>       0.92987898       0.67167077       0.33247735 </v>
    <v>       0.42987898       0.17167077       0.66581068 </v>
    <v>       0.92987898       0.17167077       0.66581068 </v>
    <v>       0.42987898       0.67167077       0.66581068 </v>
    <v>       0.92987898       0.67167077       0.66581068 </v>
    <v>       0.42987898       0.17167077       0.99914401 </v>
    <v>       0.92987898       0.17167077       0.99914401 </v>
    <v>       0.42987898       0.67167077       0.99914401 </v>
    <v>       0.92987898       0.67167077       0.99914401 </v>
    <v>       0.07012102       0.32832923       0.33247735 </v>
    <v>       0.57012102       0.32832923       0.33247735 </v>
    <v>       0.07012102       0.82832923       0.33247735 </v>
    <v>       0.57012102       0.82832923       0.33247735 </v>
    <v>       0.07012102       0.32832923       0.66581068 </v>
    <v>       0.57012102       0.32832923       0.66581068 </v>
    <v>       0.07012102       0.82832923       0.66581068 </v>
    <v>       0.57012102       0.82832923       0.66581068 </v>
    <v>       0.07012102       0.32832923       0.99914401 </v>
    <v>       0.57012102       0.32832923       0.99914401 </v>
    <v>       0.07012102       0.82832923       0.99914401 </v>
    <v>       0.57012102       0.82832923       0.99914401 </v>
    <v>       0.32012053       0.42167367       0.05641075 </v>
    <v>       0.82012053       0.42167367       0.05641075 </v>
    <v>       0.32012053       0.92167367       0.05641075 </v>
    <v>       0.82012053       0.92167367       0.05641075 </v>
    <v>       0.32012053       0.42167367       0.38974408 </v>
    <v>       0.82012053       0.42167367       0.38974408 </v>
    <v>       0.32012053       0.92167367       0.38974408 </v>
    <v>       0.82012053       0.92167367       0.38974408 </v>
    <v>       0.32012053       0.42167367       0.72307741 </v>
    <v>       0.82012053       0.42167367       0.72307741 </v>
    <v>       0.32012053       0.92167367       0.72307741 </v>
    <v>       0.82012053       0.92167367       0.72307741 </v>
    <v>       0.17987947       0.07832633       0.05641075 </v>
    <v>       0.67987947       0.07832633       0.05641075 </v>
    <v>       0.17987947       0.57832633       0.05641075 </v>
    <v>       0.67987947       0.57832633       0.05641075 </v>
    <v>       0.17987947       0.07832633       0.38974408 </v>
    <v>       0.67987947       0.07832633       0.38974408 </v>
    <v>       0.17987947       0.57832633       0.38974408 </v>
    <v>       0.67987947       0.57832633       0.38974408 </v>
    <v>       0.17987947       0.07832633       0.72307741 </v>
    <v>       0.67987947       0.07832633       0.72307741 </v>
    <v>       0.17987947       0.57832633       0.72307741 </v>
    <v>       0.67987947       0.57832633       0.72307741 </v>
    <v>       0.17987776       0.32832369       0.16580856 </v>
    <v>       0.67987776       0.32832369       0.16580856 </v>
    <v>       0.17987776       0.82832369       0.16580856 </v>
    <v>       0.67987776       0.82832369       0.16580856 </v>
    <v>       0.17987776       0.32832369       0.49914189 </v>
    <v>       0.67987776       0.32832369       0.49914189 </v>
    <v>       0.17987776       0.82832369       0.49914189 </v>
    <v>       0.67987776       0.82832369       0.49914189 </v>
    <v>       0.17987776       0.32832369       0.83247522 </v>
    <v>       0.67987776       0.32832369       0.83247522 </v>
    <v>       0.17987776       0.82832369       0.83247522 </v>
    <v>       0.67987776       0.82832369       0.83247522 </v>
    <v>       0.32012224       0.17167631       0.16580856 </v>
    <v>       0.82012224       0.17167631       0.16580856 </v>
    <v>       0.32012224       0.67167631       0.16580856 </v>
    <v>       0.82012224       0.67167631       0.16580856 </v>
    <v>       0.32012224       0.17167631       0.49914189 </v>
    <v>       0.82012224       0.17167631       0.49914189 </v>
    <v>       0.32012224       0.67167631       0.49914189 </v>
    <v>       0.82012224       0.67167631       0.49914189 </v>
    <v>       0.32012224       0.17167631       0.83247522 </v>
    <v>       0.82012224       0.17167631       0.83247522 </v>
    <v>       0.32012224       0.67167631       0.83247522 </v>
    <v>       0.82012224       0.67167631       0.83247522 </v>
    <v>       0.42987656       0.42167494       0.22308000 </v>
    <v>       0.92987656       0.42167494       0.22308000 </v>
    <v>       0.42987656       0.92167494       0.22308000 </v>
    <v>       0.92987656       0.92167494       0.22308000 </v>
    <v>       0.42987656       0.42167494       0.55641333 </v>
    <v>       0.92987656       0.42167494       0.55641333 </v>
    <v>       0.42987656       0.92167494       0.55641333 </v>
    <v>       0.92987656       0.92167494       0.55641333 </v>
    <v>       0.42987656       0.42167494       0.88974666 </v>
    <v>       0.92987656       0.42167494       0.88974666 </v>
    <v>       0.42987656       0.92167494       0.88974666 </v>
    <v>       0.92987656       0.92167494       0.88974666 </v>
    <v>       0.07012344       0.07832506       0.22308000 </v>
    <v>       0.57012344       0.07832506       0.22308000 </v>
    <v>       0.07012344       0.57832506       0.22308000 </v>
    <v>       0.57012344       0.57832506       0.22308000 </v>
    <v>       0.07012344       0.07832506       0.55641333 </v>
    <v>       0.57012344       0.07832506       0.55641333 </v>
    <v>       0.07012344       0.57832506       0.55641333 </v>
    <v>       0.57012344       0.57832506       0.55641333 </v>
    <v>       0.07012344       0.07832506       0.88974666 </v>
    <v>       0.57012344       0.07832506       0.88974666 </v>
    <v>       0.07012344       0.57832506       0.88974666 </v>
    <v>       0.57012344       0.57832506       0.88974666 </v>
    <v>       0.00000000       0.00072638       0.05479365 </v>
    <v>       0.50000000       0.00000000       0.05479365 </v>
    <v>       0.00000000       0.50000000       0.05479365 </v>
    <v>       0.50000000       0.50000000       0.05479365 </v>
    <v>       0.00000000       0.00000000       0.38812698 </v>
    <v>       0.50000000       0.00000000       0.38812698 </v>
    <v>       0.00000000       0.50000000       0.38812698 </v>
    <v>       0.50000000       0.50000000       0.38812698 </v>
    <v>       0.00000000       0.00000000       0.72146032 </v>
    <v>       0.50000000       0.00000000       0.72146032 </v>
    <v>       0.00000000       0.50000000       0.72146032 </v>
    <v>       0.50000000       0.50000000       0.72146032 </v>
    <v>       0.25000000       0.00000000       0.22145206 </v>
    <v>       0.75000000       0.00000000       0.22145206 </v>
    <v>       0.25000000       0.50000000       0.22145206 </v>
    <v>       0.75000000       0.50000000       0.22145206 </v>
    <v>       0.25000000       0.00000000       0.55478539 </v>
    <v>       0.75000000       0.00000000       0.55478539 </v>
    <v>       0.25000000       0.50000000       0.55478539 </v>
    <v>       0.75000000       0.50000000       0.55478539 </v>
    <v>       0.25000000       0.00000000       0.88811873 </v>
    <v>       0.75000000       0.00000000       0.88811873 </v>
    <v>       0.25000000       0.50000000       0.88811873 </v>
    <v>       0.75000000       0.50000000       0.88811873 </v>
    <v>       0.00000000       0.25000000       0.16743769 </v>
    <v>       0.50000000       0.25000000       0.16743769 </v>
    <v>       0.00000000       0.75000000       0.16743769 </v>
    <v>       0.50000000       0.75000000       0.16743769 </v>
    <v>       0.00000000       0.25000000       0.50077102 </v>
    <v>       0.50000000       0.25000000       0.50077102 </v>
    <v>       0.00000000       0.75000000       0.50077102 </v>
    <v>       0.50000000       0.75000000       0.50077102 </v>
    <v>       0.00000000       0.25000000       0.83410435 </v>
    <v>       0.50000000       0.25000000       0.83410435 </v>
    <v>       0.00000000       0.75000000       0.83410435 </v>
    <v>       0.50000000       0.75000000       0.83410435 </v>
    <v>       0.25000000       0.25000000       0.00076332 </v>
    <v>       0.75000000       0.25000000       0.00076332 </v>
    <v>       0.25000000       0.75000000       0.00076332 </v>
    <v>       0.75000000       0.75000000       0.00076332 </v>
    <v>       0.25000000       0.25000000       0.33409665 </v>
    <v>       0.75000000       0.25000000       0.33409665 </v>
    <v>       0.25000000       0.75000000       0.33409665 </v>
    <v>       0.75000000       0.75000000       0.33409665 </v>
    <v>       0.25000000       0.25000000       0.66742999 </v>
    <v>       0.75000000       0.25000000       0.66742999 </v>
    <v>       0.25000000       0.75000000       0.66742999 </v>
    <v>       0.75000000       0.75000000       0.66742999 </v>
   </varray>
  </structure>
  <varray name="forces" >
   <v>      -0.00014180       0.00009299      -0.00002241 </v>
   <v>       0.00003258       0.00020562      -0.00009970 </v>
   <v>      -0.00006739       0.00003329      -0.00002969 </v>
   <v>      -0.00042879      -0.00028873       0.00074974 </v>
   <v>      -0.00009218       0.00007695      -0.00002565 </v>
   <v>      -0.00003855       0.00008836       0.00004582 </v>
   <v>      -0.00006895      -0.00000635      -0.00002124 </v>
   <v>      -0.00016796      -0.00034221      -0.00018087 </v>
   <v>      -0.00010230       0.00005142       0.00003409 </v>
   <v>      -0.00996195       0.01513456      -0.00519351 </v>
   <v>       0.00000424       0.00007461      -0.00003024 </v>
   <v>      -0.00003331       0.00031795      -0.00014001 </v>
   <v>      -0.00039794      -0.00043013      -0.00082719 </v>
   <v>      -0.00003044      -0.00010576      -0.00003892 </v>
   <v>       0.00006835       0.00006255       0.00003080 </v>
   <v>      -0.00010299      -0.00004697      -0.00004601 </v>
   <v>      -0.00013272      -0.00048192       0.00011416 </v>
   <v>      -0.00003163      -0.00014560      -0.00004786 </v>
   <v>      -0.00000079      -0.00005208      -0.00011507 </v>
   <v>      -0.00005458      -0.00006226      -0.00004315 </v>
   <v>       0.00001103       0.00019299       0.00007246 </v>
   <v>       0.00004119      -0.00006315      -0.00003912 </v>
   <v>      -0.00951032       0.01421538       0.00483060 </v>
   <v>      -0.00006399      -0.00008718      -0.00010210 </v>
   <v>      -0.00004038      -0.00014815       0.00005725 </v>
   <v>      -0.00005977      -0.00010330       0.00008487 </v>
   <v>      -0.00031338       0.00016838       0.00002873 </v>
   <v>       0.00580313       0.00147646      -0.00012796 </v>
   <v>      -0.00002318       0.00002100       0.00005997 </v>
   <v>      -0.00006128       0.00004218       0.00005031 </v>
   <v>      -0.00011081       0.00011027      -0.00010219 </v>
   <v>      -0.00018162       0.00008324       0.00034355 </v>
   <v>      -0.00002359       0.00001203       0.00007578 </v>
   <v>      -0.00002302      -0.00002591       0.00007877 </v>
   <v>      -0.00017051       0.00012317       0.00031399 </v>
   <v>      -0.00015077       0.00004082      -0.00021094 </v>
   <v>       0.00582897       0.00141346       0.00023862 </v>
   <v>      -0.00035302       0.00012143       0.00007644 </v>
   <v>      -0.00010061      -0.00014938       0.00002229 </v>
   <v>      -0.00008022      -0.00019057       0.00004875 </v>
   <v>      -0.00022128       0.00003912      -0.00023574 </v>
   <v>      -0.00015252       0.00006649       0.00021115 </v>
   <v>      -0.00010248      -0.00000343       0.00005596 </v>
   <v>      -0.00006301      -0.00002401       0.00004623 </v>
   <v>      -0.00018975      -0.00000556       0.00031630 </v>
   <v>      -0.00021077       0.00007866      -0.00020803 </v>
   <v>      -0.00006344      -0.00007176       0.00002749 </v>
   <v>      -0.00006364      -0.00003370       0.00002999 </v>
   <v>      -0.00060872      -0.00018703      -0.00000592 </v>
   <v>      -0.00002513      -0.00003318      -0.00005133 </v>
   <v>      -0.00056179       0.00033012      -0.00032963 </v>
   <v>      -0.00014067      -0.00004142       0.00009292 </v>
   <v>      -0.00012829       0.00000035      -0.00006850 </v>
   <v>      -0.00006031      -0.00002063      -0.00003004 </v>
   <v>      -0.00005342       0.00005765       0.00001541 </v>
   <v>      -0.00007634       0.00006612       0.00003611 </v>
   <v>      -0.00019565      -0.00002147      -0.00003708 </v>
   <v>      -0.00000391      -0.00008044       0.00000821 </v>
   <v>      -0.00029927       0.00034882       0.00049377 </v>
   <v>      -0.00008766      -0.00001072      -0.00002202 </v>
   <v>      -0.00013088      -0.00003337      -0.00011736 </v>
   <v>      -0.00055959       0.00033209       0.00030992 </v>
   <v>      -0.00001742      -0.00002806       0.00002865 </v>
   <v>      -0.00059544      -0.00018156      -0.00001934 </v>
   <v>      -0.00006812       0.00007270      -0.00006073 </v>
   <v>      -0.00004524       0.00006427      -0.00003885 </v>
   <v>      -0.00005168      -0.00001536       0.00000695 </v>
   <v>      -0.00011947       0.00000608       0.00004404 </v>
   <v>      -0.00007957      -0.00000465      -0.00000133 </v>
   <v>      -0.00029435       0.00035418      -0.00052586 </v>
   <v>       0.00000427      -0.00007490      -0.00003155 </v>
   <v>      -0.00018728      -0.00001499       0.00001407 </v>
   <v>      -0.00002891       0.00000306       0.00001084 </v>
   <v>       0.00027636      -0.00090038      -0.00021456 </v>
   <v>      -0.00028500       0.00007181       0.00008458 </v>
   <v>       0.00045699      -0.00014291      -0.00305360 </v>
   <v>      -0.00003874      -0.00001193       0.00000058 </v>
   <v>      -0.00005209      -0.00007913       0.00006318 </v>
   <v>      -0.00008922       0.00001667       0.00000172 </v>
   <v>      -0.00008945      -0.00008052       0.00000819 </v>
   <v>      -0.00000080      -0.00001664       0.00001140 </v>
   <v>      -0.00000167      -0.00020126      -0.00003873 </v>
   <v>      -0.00038515       0.00005379      -0.00006822 </v>
   <v>       0.00222642      -0.00003871       0.00571879 </v>
   <v>       0.00044730      -0.00017285       0.00313071 </v>
   <v>      -0.00031143       0.00004790      -0.00004683 </v>
   <v>       0.00025053      -0.00092250       0.00025167 </v>
   <v>      -0.00005315      -0.00002275       0.00002645 </v>
   <v>      -0.00011287      -0.00010316       0.00003041 </v>
   <v>      -0.00011509      -0.00000787       0.00003724 </v>
   <v>      -0.00007767      -0.00010599      -0.00002701 </v>
   <v>      -0.00006361      -0.00003695       0.00003747 </v>
   <v>       0.00222998      -0.00011028      -0.00573793 </v>
   <v>      -0.00041016       0.00002860       0.00010632 </v>
   <v>      -0.00002859      -0.00022807       0.00007730 </v>
   <v>      -0.00002575      -0.00004182       0.00002714 </v>
   <v>      -0.00353654      -0.05096677       0.00019480 </v>
   <v>       0.00019745       0.00024300      -0.00009263 </v>
   <v>       0.00030367       0.00097149      -0.00009309 </v>
   <v>       0.00002665       0.00016758      -0.00009205 </v>
   <v>       0.00014399       0.00047926      -0.00010045 </v>
   <v>       0.00048896       0.00023797      -0.00009357 </v>
   <v>       0.00017915       0.00109626      -0.00008418 </v>
   <v>       0.00004920       0.00013577      -0.00009163 </v>
   <v>       0.00001398       0.00047927      -0.00008692 </v>
   <v>       0.00071492       0.00023799      -0.00009266 </v>
   <v>      -0.00002772       0.00109620      -0.00009068 </v>
   <v>       0.00009990       0.00013582      -0.00009196 </v>
   <v>       0.00176753      -0.00119416       0.00087599 </v>
   <v>       0.00177308      -0.00119891      -0.00086732 </v>
   <v>       0.00031554       0.00009932      -0.00007136 </v>
   <v>       0.00031326       0.00009808       0.00009041 </v>
   <v>       0.00029275      -0.00013674       0.00006089 </v>
   <v>       0.00029391      -0.00013740      -0.00004080 </v>
   <v>       0.00007151      -0.00007786       0.00002613 </v>
   <v>       0.00007155      -0.00007772      -0.00000536 </v>
   <v>       0.00201159      -0.00119721      -0.00077894 </v>
   <v>       0.00200382      -0.00119539       0.00080105 </v>
   <v>       0.00013673       0.00009953       0.00003793 </v>
   <v>       0.00013749       0.00009789      -0.00001778 </v>
   <v>       0.00057127       0.00736751       0.00418311 </v>
   <v>       0.00014353       0.00018290      -0.00004570 </v>
   <v>       0.00055283       0.00726532      -0.00417037 </v>
   <v>       0.00014136       0.00018169      -0.00001412 </v>
   <v>       0.00011869       0.00042529      -0.00008492 </v>
   <v>       0.00014387       0.00013566       0.00002160 </v>
   <v>       0.00011570       0.00042651       0.00002647 </v>
   <v>       0.00014210       0.00013580      -0.00008043 </v>
   <v>       0.00018218       0.00226818      -0.00188169 </v>
   <v>       0.00005434       0.00003968      -0.00011938 </v>
   <v>       0.00017505       0.00225299       0.00179615 </v>
   <v>       0.00005435       0.00004055       0.00006084 </v>
   <v>       0.00088033       0.00045303       0.00012141 </v>
   <v>      -0.00013726       0.00044921      -0.00046743 </v>
   <v>      -0.00012348       0.00044106       0.00057678 </v>
   <v>       0.00087148       0.00043772      -0.00000126 </v>
   <v>       0.00053848      -0.00030870       0.00024042 </v>
   <v>      -0.00001503      -0.00030867       0.00016423 </v>
   <v>      -0.00001328      -0.00030593      -0.00004618 </v>
   <v>       0.00053301      -0.00030583      -0.00011838 </v>
   <v>       0.00005915      -0.00003175       0.00006257 </v>
   <v>       0.00008676      -0.00003181       0.00016791 </v>
   <v>       0.00008774      -0.00003079      -0.00004925 </v>
   <v>       0.00006033      -0.00003084       0.00005770 </v>
  </varray>
  <varray name="stress" >
   <v>      -0.16355319      -0.00026485       0.00720052 </v>
   <v>      -0.00026475      -0.15322527      -0.01091781 </v>
   <v>       0.00720061      -0.01091791      -0.15723439 </v>
  </varray>
  <energy>
   <i name="e_fr_energy">   -505.12815715 </i>
   <i name="e_wo_entrp">   -505.12054370 </i>
   <i name="e_0_energy">     -0.01522689 </i>
  </energy>
  <time name="totalsc">19556.9119608.48</time>
  <eigenvalues>
   <array>
    <dimension dim="1">band</dimension>
    <dimension dim="2">kpoint</dimension>
    <dimension dim="3">spin</dimension>
    <field>eigene</field>
    <field>occ</field>
    <set>
     <set comment="spin 1">
      <set comment="kpoint 1">
       <r>   -7.4639    1.0000 </r>
       <r>   -7.2295    1.0000 </r>
       <r>   -7.2295    1.0000 </r>
       <r>   -7.2157    1.0000 </r>
       <r>   -7.2157    1.0000 </r>
       <r>   -7.1645    1.0000 </r>
       <r>   -7.1641    1.0000 </r>
       <r>   -7.0695    1.0000 </r>
       <r>   -7.0695    1.0000 </r>
       <r>   -7.0695    1.0000 </r>
       <r>   -7.0695    1.0000 </r>
       <r>   -7.0094    1.0000 </r>
       <r>   -7.0091    1.0000 </r>
       <r>   -7.0091    1.0000 </r>
       <r>   -7.0088    1.0000 </r>
       <r>   -6.9942    1.0000 </r>
       <r>   -6.9939    1.0000 </r>
       <r>   -6.9938    1.0000 </r>
       <r>   -6.9935    1.0000 </r>
       <r>   -6.9476    1.0000 </r>
       <r>   -6.9351    1.0000 </r>
       <r>   -6.9351    1.0000 </r>
       <r>   -6.9195    1.0000 </r>
       <r>   -6.9191    1.0000 </r>
       <r>   -6.9191    1.0000 </r>
       <r>   -6.9191    1.0000 </r>
       <r>   -6.9191    1.0000 </r>
       <r>   -6.9191    1.0000 </r>
       <r>   -6.9190    1.0000 </r>
       <r>   -6.9186    1.0000 </r>
       <r>   -6.8368    1.0000 </r>
       <r>   -6.8366    1.0000 </r>
       <r>   -6.8366    1.0000 </r>
       <r>   -6.8365    1.0000 </r>
       <r>   -6.8238    1.0000 </r>
       <r>   -6.8181    1.0000 </r>
       <r>   -6.8179    1.0000 </r>
       <r>   -6.7726    1.0000 </r>
       <r>   -6.7726    1.0000 </r>
       <r>   -6.7669    1.0000 </r>
       <r>   -6.7669    1.0000 </r>
       <r>   -6.7669    1.0000 </r>
       <r>   -6.7668    1.0000 </r>
       <r>   -6.7547    1.0000 </r>
       <r>   -6.7547    1.0000 </r>
       <r>   -6.7400    1.0000 </r>
       <r>   -6.7400    1.0000 </r>
       <r>   -6.6844    1.0000 </r>
       <r>   -0.3461    1.0000 </r>
       <r>    0.0939    1.0000 </r>
       <r>    0.0941    1.0000 </r>
       <r>    0.0942    1.0000 </r>
       <r>    0.0943    1.0000 </r>
       <r>    0.0943    1.0000 </r>
       <r>    0.0944    1.0000 </r>
       <r>    0.0944    1.0000 </r>
       <r>    0.0946    1.0000 </r>
       <r>    0.1077    1.0000 </r>
       <r>    0.1078    1.0000 </r>
       <r>    0.1079    1.0000 </r>
       <r>    0.1080    1.0000 </r>
       <r>    0.1520    1.0000 </r>
       <r>    0.1522    1.0000 </r>
       <r>    0.1523    1.0000 </r>
       <r>    0.1524    1.0000 </r>
       <r>    0.1580    1.0000 </r>
       <r>    0.1581    1.0000 </r>
       <r>    0.1595    1.0000 </r>
       <r>    0.1598    1.0000 </r>
       <r>    0.2007    1.0000 </r>
       <r>    0.2009    1.0000 </r>
       <r>    0.2010    1.0000 </r>
       <r>    0.2011    1.0000 </r>
       <r>    0.2366    1.0000 </r>
       <r>    0.2368    1.0000 </r>
       <r>    0.2568    1.0000 </r>
       <r>    0.2568    1.0000 </r>
       <r>    0.2821    1.0000 </r>
       <r>    0.3008    1.0000 </r>
       <r>    0.3008    1.0000 </r>
       <r>    0.3229    1.0000 </r>
       <r>    0.4472    1.0000 </r>
       <r>    0.4473    1.0000 </r>
       <r>    0.4509    1.0000 </r>
       <r>    0.4509    1.0000 </r>
       <r>    0.4573    1.0000 </r>
       <r>    0.4573    1.0000 </r>
       <r>    0.4654    1.0000 </r>
       <r>    0.4656    1.0000 </r>
       <r>    0.4658    1.0000 </r>
       <r>    0.4659    1.0000 </r>
       <r>    0.4699    1.0000 </r>
       <r>    0.4700    1.0000 </r>
       <r>    0.4701    1.0000 </r>
       <r>    0.4703    1.0000 </r>
       <r>    0.5113    1.0000 </r>
       <r>    0.5113    1.0000 </r>
       <r>    0.5261    1.0000 </r>
       <r>    0.5263    1.0000 </r>
       <r>    0.5264    1.0000 </r>
       <r>    0.5265    1.0000 </r>
       <r>    0.5971    1.0000 </r>
       <r>    0.6017    1.0000 </r>
       <r>    0.6547    1.0000 </r>
       <r>    0.6549    1.0000 </r>
       <r>    0.6552    1.0000 </r>
       <r>    0.6553    1.0000 </r>
       <r>    0.6617    1.0000 </r>
       <r>    0.6617    1.0000 </r>
       <r>    0.6878    1.0000 </r>
       <r>    0.6878    1.0000 </r>
       <r>    0.7018    1.0000 </r>
       <r>    0.7019    1.0000 </r>
       <r>    0.7019    1.0000 </r>
       <r>    0.7020    1.0000 </r>
       <r>    0.7206    1.0000 </r>
       <r>    0.7208    1.0000 </r>
       <r>    0.7410    1.0000 </r>
       <r>    0.7411    1.0000 </r>
       <r>    0.7485    1.0000 </r>
       <r>    0.8022    1.0000 </r>
       <r>    0.8141    1.0000 </r>
       <r>    0.8143    1.0000 </r>
       <r>    0.8145    1.0000 </r>
       <r>    0.8147    1.0000 </r>
       <r>    0.8303    1.0000 </r>
       <r>    0.8304    1.0000 </r>
       <r>    0.8304    1.0000 </r>
       <r>    0.8305    1.0000 </r>
       <r>    0.8515    1.0000 </r>
       <r>    0.8519    1.0000 </r>
       <r>    0.8520    1.0000 </r>
       <r>    0.8520    1.0000 </r>
       <r>    0.8521    1.0000 </r>
       <r>    0.8521    1.0000 </r>
       <r>    0.8522    1.0000 </r>
       <r>    0.8527    1.0000 </r>
       <r>    0.8950    1.0000 </r>
       <r>    0.8977    1.0000 </r>
       <r>    0.8978    1.0000 </r>
       <r>    0.8993    1.0000 </r>
       <r>    0.8994    1.0000 </r>
       <r>    0.8995    1.0000 </r>
       <r>    0.8997    1.0000 </r>
       <r>    0.9204    1.0000 </r>
       <r>    0.9458    1.0000 </r>
       <r>    0.9461    1.0000 </r>
       <r>    1.0706    1.0000 </r>
       <r>    1.0709    1.0000 </r>
       <r>    1.0709    1.0000 </r>
       <r>    1.0712    1.0000 </r>
       <r>    1.0846    1.0000 </r>
       <r>    1.0847    1.0000 </r>
       <r>    1.0847    1.0000 </r>
       <r>    1.0848    1.0000 </r>
       <r>    1.0850    1.0000 </r>
       <r>    1.0851    1.0000 </r>
       <r>    1.1009    1.0000 </r>
       <r>    1.1009    1.0000 </r>
       <r>    1.1456    1.0000 </r>
       <r>    1.1458    1.0000 </r>
       <r>    1.1461    1.0000 </r>
       <r>    1.1462    1.0000 </r>
       <r>    1.1616    1.0000 </r>
       <r>    1.1619    1.0000 </r>
       <r>    1.1619    1.0000 </r>
       <r>    1.1622    1.0000 </r>
       <r>    1.1758    1.0000 </r>
       <r>    1.1758    1.0000 </r>
       <r>    1.1996    1.0000 </r>
       <r>    1.2242    1.0000 </r>
       <r>    1.2242    1.0000 </r>
       <r>    1.2296    1.0000 </r>
       <r>    1.2296    1.0000 </r>
       <r>    1.2299    1.0000 </r>
       <r>    1.2299    1.0000 </r>
       <r>    1.2300    1.0000 </r>
       <r>    1.2300    1.0000 </r>
       <r>    1.2302    1.0000 </r>
       <r>    1.2303    1.0000 </r>
       <r>    1.2370    1.0000 </r>
       <r>    1.2372    1.0000 </r>
       <r>    1.3414    1.0000 </r>
       <r>    1.3415    1.0000 </r>
       <r>    1.3415    1.0000 </r>
       <r>    1.3416    1.0000 </r>
       <r>    1.3653    1.0000 </r>
       <r>    1.3664    1.0000 </r>
       <r>    1.3664    1.0000 </r>
       <r>    1.3671    1.0000 </r>
       <r>    1.3673    1.0000 </r>
       <r>    1.3734    1.0000 </r>
       <r>    1.3734    1.0000 </r>
       <r>    1.3736    1.0000 </r>
       <r>    1.3736    1.0000 </r>
[...]
       <r>    -1.7775     0.0000    96.0000 </r>
       <r>    -1.7058     0.0000    96.0000 </r>
       <r>    -1.6342     0.0000    96.0000 </r>
       <r>    -1.5625     0.0000    96.0000 </r>
       <r>    -1.4909     0.0000    96.0000 </r>
       <r>    -1.4192     0.0000    96.0000 </r>
       <r>    -1.3476     0.0000    96.0000 </r>
       <r>    -1.2759     0.0000    96.0000 </r>
       <r>    -1.2043     0.0000    96.0000 </r>
       <r>    -1.1326     0.0000    96.0000 </r>
       <r>    -1.0610     0.0000    96.0000 </r>
       <r>    -0.9893     0.0000    96.0000 </r>
       <r>    -0.9177     0.0000    96.0000 </r>
       <r>    -0.8460     0.0000    96.0000 </r>
       <r>    -0.7744     0.0000    96.0000 </r>
       <r>    -0.7027     0.0000    96.0000 </r>
       <r>    -0.6311     0.0000    96.0000 </r>
       <r>    -0.5594     0.0000    96.0000 </r>
       <r>    -0.4878     0.0001    96.0000 </r>
       <r>    -0.4161     0.0829    96.0059 </r>
       <r>    -0.3445     1.7253    96.1296 </r>
       <r>    -0.2728     1.8893    96.2649 </r>
       <r>    -0.2012     8.0941    96.8449 </r>
       <r>    -0.1295    15.3979    97.9481 </r>
       <r>    -0.0579    23.8895    99.6598 </r>
       <r>     0.0138    50.7287   103.2945 </r>
       <r>     0.0854   101.0772   110.5367 </r>
       <r>     0.1571   188.1921   124.0207 </r>
       <r>     0.2287   204.6677   138.6852 </r>
       <r>     0.3004   274.3865   158.3450 </r>
       <r>     0.3720   194.7884   172.3016 </r>
       <r>     0.4437   125.4008   181.2866 </r>
       <r>     0.5153   140.6808   191.3664 </r>
       <r>     0.5870   124.3306   200.2747 </r>
       <r>     0.6586   164.7842   212.0815 </r>
       <r>     0.7303   244.8581   229.6256 </r>
       <r>     0.8019   229.2214   246.0494 </r>
       <r>     0.8736   290.3359   266.8520 </r>
       <r>     0.9452   286.5770   287.3852 </r>
       <r>     1.0169   147.8379   297.9779 </r>
       <r>     1.0885   182.8260   311.0774 </r>
       <r>     1.1602   226.4568   327.3030 </r>
       <r>     1.2318   228.8386   343.6993 </r>
       <r>     1.3035   297.7213   365.0311 </r>
       <r>     1.3751   305.5385   386.9230 </r>
       <r>     1.4468   391.0458   414.9414 </r>
       <r>     1.5184   355.7232   440.4291 </r>
       <r>     1.5901   372.8307   467.1424 </r>
       <r>     1.6617   365.5920   493.3371 </r>
       <r>     1.7334   391.1189   521.3608 </r>
       <r>     1.8050   372.8978   548.0790 </r>
       <r>     1.8767   357.8736   573.7207 </r>
       <r>     1.9483   388.4616   601.5540 </r>
       <r>     2.0200   414.6413   631.2631 </r>
       <r>     2.0916   379.0171   658.4198 </r>
       <r>     2.1633   360.8792   684.2768 </r>
       <r>     2.2349   374.8264   711.1331 </r>
       <r>     2.3066   397.5074   739.6146 </r>
       <r>     2.3782   338.8772   763.8952 </r>
       <r>     2.4499   296.5653   785.1441 </r>
       <r>     2.5215   338.7012   809.4121 </r>
       <r>     2.5932   354.2711   834.7957 </r>
       <r>     2.6648   408.4781   864.0632 </r>
       <r>     2.7365   375.0198   890.9334 </r>
       <r>     2.8081   378.7583   918.0715 </r>
       <r>     2.8798   431.3171   948.9754 </r>
       <r>     2.9514   498.0575   984.6613 </r>
       <r>     3.0231   497.9454  1020.3391 </r>
       <r>     3.0947   371.3916  1046.9494 </r>
       <r>     3.1664   234.8159  1063.7740 </r>
       <r>     3.2380   205.5073  1078.4986 </r>
       <r>     3.3097   171.1024  1090.7581 </r>
       <r>     3.3813   138.8998  1100.7103 </r>
       <r>     3.4530   119.0025  1109.2368 </r>
       <r>     3.5246   156.9761  1120.4842 </r>
       <r>     3.5963   163.8347  1132.2229 </r>
       <r>     3.6679   101.5303  1139.4976 </r>
       <r>     3.7396    96.7699  1146.4312 </r>
       <r>     3.8112    65.5414  1151.1272 </r>
       <r>     3.8829    71.9345  1156.2813 </r>
       <r>     3.9545    73.6348  1161.5573 </r>
       <r>     4.0262    64.9390  1166.2102 </r>
       <r>     4.0978    92.4136  1172.8316 </r>
       <r>     4.1695   102.7643  1180.1947 </r>
       <r>     4.2411   114.9233  1188.4290 </r>
       <r>     4.3128    75.3483  1193.8277 </r>
       <r>     4.3844    72.8489  1199.0473 </r>
       <r>     4.4561    65.3175  1203.7273 </r>
       <r>     4.5277    91.8511  1210.3085 </r>
       <r>     4.5994    93.4020  1217.0007 </r>
       <r>     4.6710   102.3023  1224.3307 </r>
       <r>     4.7427   138.9652  1234.2876 </r>
       <r>     4.8143   138.6184  1244.2196 </r>
       <r>     4.8860    73.3096  1249.4722 </r>
       <r>     4.9576    53.4409  1253.3013 </r>
       <r>     5.0293    55.0182  1257.2433 </r>
       <r>     5.1009    86.3929  1263.4334 </r>
       <r>     5.1726   143.7441  1273.7327 </r>
       <r>     5.2442   109.8251  1281.6017 </r>
       <r>     5.3159    63.3715  1286.1422 </r>
       <r>     5.3875    59.1495  1290.3803 </r>
       <r>     5.4592    69.4310  1295.3550 </r>
       <r>     5.5308    72.2869  1300.5344 </r>
       <r>     5.6025    76.5039  1306.0159 </r>
       <r>     5.6741   109.6675  1313.8736 </r>
       <r>     5.7458   132.7055  1323.3820 </r>
       <r>     5.8174    73.2126  1328.6277 </r>
       <r>     5.8891    64.4118  1333.2428 </r>
       <r>     5.9607    58.7904  1337.4551 </r>
       <r>     6.0324    30.6962  1339.6545 </r>
       <r>     6.1040    19.0032  1341.0161 </r>
       <r>     6.1757    21.5280  1342.5586 </r>
       <r>     6.2473    16.9489  1343.7730 </r>
       <r>     6.3190     9.1376  1344.4277 </r>
       <r>     6.3906     1.0038  1344.4996 </r>
       <r>     6.4623     0.1125  1344.5077 </r>
       <r>     6.5339     1.8542  1344.6405 </r>
       <r>     6.6056     1.8030  1344.7697 </r>
       <r>     6.6772     5.2068  1345.1428 </r>
       <r>     6.7489    22.6625  1346.7665 </r>
       <r>     6.8205    26.1687  1348.6415 </r>
       <r>     6.8922    11.3810  1349.4570 </r>
       <r>     6.9639     6.3009  1349.9084 </r>
       <r>     7.0355     8.9741  1350.5514 </r>
       <r>     7.1072     4.6676  1350.8859 </r>
       <r>     7.1788    21.2281  1352.4069 </r>
       <r>     7.2505    23.9224  1354.1209 </r>
       <r>     7.3221    28.1461  1356.1376 </r>
       <r>     7.3938    31.1532  1358.3697 </r>
       <r>     7.4654    30.4324  1360.5502 </r>
       <r>     7.5371    59.8034  1364.8351 </r>
       <r>     7.6087    72.2544  1370.0121 </r>
       <r>     7.6804    26.8765  1371.9379 </r>
       <r>     7.7520    54.0556  1375.8109 </r>
       <r>     7.8237    69.5922  1380.7972 </r>
       <r>     7.8953    73.2871  1386.0483 </r>
       <r>     7.9670    75.2604  1391.4407 </r>
       <r>     8.0386    66.7395  1396.2226 </r>
       <r>     8.1103    34.6651  1398.7063 </r>
       <r>     8.1819    18.8855  1400.0595 </r>
       <r>     8.2536     8.4889  1400.6677 </r>
       <r>     8.3252     9.9879  1401.3833 </r>
       <r>     8.3969    50.4030  1404.9947 </r>
       <r>     8.4685    34.7409  1407.4839 </r>
       <r>     8.5402    31.4871  1409.7400 </r>
       <r>     8.6118    93.9544  1416.4718 </r>
       <r>     8.6835   105.3572  1424.0207 </r>
       <r>     8.7551    58.9014  1428.2410 </r>
       <r>     8.8268    51.6785  1431.9437 </r>
       <r>     8.8984    33.4169  1434.3381 </r>
       <r>     8.9701    45.7850  1437.6186 </r>
       <r>     9.0417    30.6142  1439.8121 </r>
       <r>     9.1134    22.3340  1441.4123 </r>
       <r>     9.1850    10.4126  1442.1584 </r>
       <r>     9.2567    16.3051  1443.3266 </r>
       <r>     9.3283    53.1169  1447.1325 </r>
       <r>     9.4000    49.8259  1450.7025 </r>
       <r>     9.4716    54.3354  1454.5956 </r>
       <r>     9.5433    38.3263  1457.3417 </r>
       <r>     9.6149    50.6005  1460.9673 </r>
       <r>     9.6866    50.0397  1464.5526 </r>
       <r>     9.7582    47.9513  1467.9883 </r>
       <r>     9.8299    52.0100  1471.7149 </r>
       <r>     9.9015    76.4672  1477.1937 </r>
       <r>     9.9732    55.5575  1481.1744 </r>
       <r>    10.0448   107.4212  1488.8712 </r>
       <r>    10.1165   119.6348  1497.4430 </r>
       <r>    10.1881    44.0379  1500.5983 </r>
       <r>    10.2598    28.2205  1502.6203 </r>
       <r>    10.3314    48.7960  1506.1166 </r>
       <r>    10.4031    55.5504  1510.0968 </r>
       <r>    10.4747    90.2072  1516.5601 </r>
       <r>    10.5464   109.3155  1524.3926 </r>
       <r>    10.6180   112.2910  1532.4383 </r>
       <r>    10.6897    94.7039  1539.2238 </r>
       <r>    10.7613    77.9603  1544.8097 </r>
       <r>    10.8330   107.1541  1552.4873 </r>
       <r>    10.9046    90.6081  1558.9794 </r>
       <r>    10.9763    65.2344  1563.6534 </r>
       <r>    11.0479    35.3568  1566.1867 </r>
       <r>    11.1196    54.7472  1570.1094 </r>
       <r>    11.1912    52.3034  1573.8569 </r>
       <r>    11.2629    44.3450  1577.0342 </r>
       <r>    11.3345    82.9356  1582.9766 </r>
       <r>    11.4062    53.9903  1586.8450 </r>
       <r>    11.4778    54.3779  1590.7412 </r>
       <r>    11.5495    88.6978  1597.0964 </r>
       <r>    11.6211    68.5741  1602.0097 </r>
       <r>    11.6928    46.7925  1605.3624 </r>
       <r>    11.7644    12.4769  1606.2564 </r>
       <r>    11.8361    14.4904  1607.2946 </r>
       <r>    11.9077    36.0269  1609.8760 </r>
       <r>    11.9794    21.4445  1611.4125 </r>
       <r>    12.0510     3.0659  1611.6321 </r>
       <r>    12.1227     4.5564  1611.9586 </r>
       <r>    12.1943     0.5754  1611.9998 </r>
       <r>    12.2660     0.0023  1612.0000 </r>
       <r>    12.3376     0.0000  1612.0000 </r>
       <r>    12.4093     0.0000  1612.0000 </r>
       <r>    12.4809     0.0000  1612.0000 </r>
       <r>    12.5526     0.0000  1612.0000 </r>
       <r>    12.6242     0.0000  1612.0000 </r>
       <r>    12.6959     0.0000  1612.0000 </r>
       <r>    12.7675     0.0000  1612.0000 </r>
       <r>    12.8392     0.0000  1612.0000 </r>
       <r>    12.9108     0.0000  1612.0000 </r>
       <r>    12.9825     0.0000  1612.0000 </r>
       <r>    13.0541     0.0000  1612.0000 </r>
      </set>
     </set>
    </array>
   </total>
  </dos>
 </calculation>
 <structure name="finalpos" >
  <crystal>
   <varray name="basis" >
    <v>      14.01039598       0.00139138       0.00000000 </v>
    <v>      -0.00150196      13.76691092       0.00000000 </v>
    <v>       0.00000000       0.00000000      14.55019386 </v>
   </varray>
   <i name="volume">   2806.43958022 </i>
   <varray name="rec_basis" >
    <v>       0.07137557       0.00000779       0.00000000 </v>
    <v>      -0.00000721       0.07263794       0.00000000 </v>
    <v>       0.00000000       0.00000000       0.06872761 </v>
   </varray>
  </crystal>
  <varray name="positions" >
   <v>       0.42987898       0.17167077       0.33247735 </v>
   <v>       0.92987898       0.17167077       0.33247735 </v>
   <v>       0.42987898       0.67167077       0.33247735 </v>
   <v>       0.92987898       0.67167077       0.33247735 </v>
   <v>       0.42987898       0.17167077       0.66581068 </v>
   <v>       0.92987898       0.17167077       0.66581068 </v>
   <v>       0.42987898       0.67167077       0.66581068 </v>
   <v>       0.92987898       0.67167077       0.66581068 </v>
   <v>       0.42987898       0.17167077       0.99914401 </v>
   <v>       0.92987898       0.17167077       0.99914401 </v>
   <v>       0.42987898       0.67167077       0.99914401 </v>
   <v>       0.92987898       0.67167077       0.99914401 </v>
   <v>       0.07012102       0.32832923       0.33247735 </v>
   <v>       0.57012102       0.32832923       0.33247735 </v>
   <v>       0.07012102       0.82832923       0.33247735 </v>
   <v>       0.57012102       0.82832923       0.33247735 </v>
   <v>       0.07012102       0.32832923       0.66581068 </v>
   <v>       0.57012102       0.32832923       0.66581068 </v>
   <v>       0.07012102       0.82832923       0.66581068 </v>
   <v>       0.57012102       0.82832923       0.66581068 </v>
   <v>       0.07012102       0.32832923       0.99914401 </v>
   <v>       0.57012102       0.32832923       0.99914401 </v>
   <v>       0.07012102       0.82832923       0.99914401 </v>
   <v>       0.57012102       0.82832923       0.99914401 </v>
   <v>       0.32012053       0.42167367       0.05641075 </v>
   <v>       0.82012053       0.42167367       0.05641075 </v>
   <v>       0.32012053       0.92167367       0.05641075 </v>
   <v>       0.82012053       0.92167367       0.05641075 </v>
   <v>       0.32012053       0.42167367       0.38974408 </v>
   <v>       0.82012053       0.42167367       0.38974408 </v>
   <v>       0.32012053       0.92167367       0.38974408 </v>
   <v>       0.82012053       0.92167367       0.38974408 </v>
   <v>       0.32012053       0.42167367       0.72307741 </v>
   <v>       0.82012053       0.42167367       0.72307741 </v>
   <v>       0.32012053       0.92167367       0.72307741 </v>
   <v>       0.82012053       0.92167367       0.72307741 </v>
   <v>       0.17987947       0.07832633       0.05641075 </v>
   <v>       0.67987947       0.07832633       0.05641075 </v>
   <v>       0.17987947       0.57832633       0.05641075 </v>
   <v>       0.67987947       0.57832633       0.05641075 </v>
   <v>       0.17987947       0.07832633       0.38974408 </v>
   <v>       0.67987947       0.07832633       0.38974408 </v>
   <v>       0.17987947       0.57832633       0.38974408 </v>
   <v>       0.67987947       0.57832633       0.38974408 </v>
   <v>       0.17987947       0.07832633       0.72307741 </v>
   <v>       0.67987947       0.07832633       0.72307741 </v>
   <v>       0.17987947       0.57832633       0.72307741 </v>
   <v>       0.67987947       0.57832633       0.72307741 </v>
   <v>       0.17987776       0.32832369       0.16580856 </v>
   <v>       0.67987776       0.32832369       0.16580856 </v>
   <v>       0.17987776       0.82832369       0.16580856 </v>
   <v>       0.67987776       0.82832369       0.16580856 </v>
   <v>       0.17987776       0.32832369       0.49914189 </v>
   <v>       0.67987776       0.32832369       0.49914189 </v>
   <v>       0.17987776       0.82832369       0.49914189 </v>
   <v>       0.67987776       0.82832369       0.49914189 </v>
   <v>       0.17987776       0.32832369       0.83247522 </v>
   <v>       0.67987776       0.32832369       0.83247522 </v>
   <v>       0.17987776       0.82832369       0.83247522 </v>
   <v>       0.67987776       0.82832369       0.83247522 </v>
   <v>       0.32012224       0.17167631       0.16580856 </v>
   <v>       0.82012224       0.17167631       0.16580856 </v>
   <v>       0.32012224       0.67167631       0.16580856 </v>
   <v>       0.82012224       0.67167631       0.16580856 </v>
   <v>       0.32012224       0.17167631       0.49914189 </v>
   <v>       0.82012224       0.17167631       0.49914189 </v>
   <v>       0.32012224       0.67167631       0.49914189 </v>
   <v>       0.82012224       0.67167631       0.49914189 </v>
   <v>       0.32012224       0.17167631       0.83247522 </v>
   <v>       0.82012224       0.17167631       0.83247522 </v>
   <v>       0.32012224       0.67167631       0.83247522 </v>
   <v>       0.82012224       0.67167631       0.83247522 </v>
   <v>       0.42987656       0.42167494       0.22308000 </v>
   <v>       0.92987656       0.42167494       0.22308000 </v>
   <v>       0.42987656       0.92167494       0.22308000 </v>
   <v>       0.92987656       0.92167494       0.22308000 </v>
   <v>       0.42987656       0.42167494       0.55641333 </v>
   <v>       0.92987656       0.42167494       0.55641333 </v>
   <v>       0.42987656       0.92167494       0.55641333 </v>
   <v>       0.92987656       0.92167494       0.55641333 </v>
   <v>       0.42987656       0.42167494       0.88974666 </v>
   <v>       0.92987656       0.42167494       0.88974666 </v>
   <v>       0.42987656       0.92167494       0.88974666 </v>
   <v>       0.92987656       0.92167494       0.88974666 </v>
   <v>       0.07012344       0.07832506       0.22308000 </v>
   <v>       0.57012344       0.07832506       0.22308000 </v>
   <v>       0.07012344       0.57832506       0.22308000 </v>
   <v>       0.57012344       0.57832506       0.22308000 </v>
   <v>       0.07012344       0.07832506       0.55641333 </v>
   <v>       0.57012344       0.07832506       0.55641333 </v>
   <v>       0.07012344       0.57832506       0.55641333 </v>
   <v>       0.57012344       0.57832506       0.55641333 </v>
   <v>       0.07012344       0.07832506       0.88974666 </v>
   <v>       0.57012344       0.07832506       0.88974666 </v>
   <v>       0.07012344       0.57832506       0.88974666 </v>
   <v>       0.57012344       0.57832506       0.88974666 </v>
   <v>       0.00000000       0.00072638       0.05479365 </v>
   <v>       0.50000000       0.00000000       0.05479365 </v>
   <v>       0.00000000       0.50000000       0.05479365 </v>
   <v>       0.50000000       0.50000000       0.05479365 </v>
   <v>       0.00000000       0.00000000       0.38812698 </v>
   <v>       0.50000000       0.00000000       0.38812698 </v>
   <v>       0.00000000       0.50000000       0.38812698 </v>
   <v>       0.50000000       0.50000000       0.38812698 </v>
   <v>       0.00000000       0.00000000       0.72146032 </v>
   <v>       0.50000000       0.00000000       0.72146032 </v>
   <v>       0.00000000       0.50000000       0.72146032 </v>
   <v>       0.50000000       0.50000000       0.72146032 </v>
   <v>       0.25000000       0.00000000       0.22145206 </v>
   <v>       0.75000000       0.00000000       0.22145206 </v>
   <v>       0.25000000       0.50000000       0.22145206 </v>
   <v>       0.75000000       0.50000000       0.22145206 </v>
   <v>       0.25000000       0.00000000       0.55478539 </v>
   <v>       0.75000000       0.00000000       0.55478539 </v>
   <v>       0.25000000       0.50000000       0.55478539 </v>
   <v>       0.75000000       0.50000000       0.55478539 </v>
   <v>       0.25000000       0.00000000       0.88811873 </v>
   <v>       0.75000000       0.00000000       0.88811873 </v>
   <v>       0.25000000       0.50000000       0.88811873 </v>
   <v>       0.75000000       0.50000000       0.88811873 </v>
   <v>       0.00000000       0.25000000       0.16743769 </v>
   <v>       0.50000000       0.25000000       0.16743769 </v>
   <v>       0.00000000       0.75000000       0.16743769 </v>
   <v>       0.50000000       0.75000000       0.16743769 </v>
   <v>       0.00000000       0.25000000       0.50077102 </v>
   <v>       0.50000000       0.25000000       0.50077102 </v>
   <v>       0.00000000       0.75000000       0.50077102 </v>
   <v>       0.50000000       0.75000000       0.50077102 </v>
   <v>       0.00000000       0.25000000       0.83410435 </v>
   <v>       0.50000000       0.25000000       0.83410435 </v>
   <v>       0.00000000       0.75000000       0.83410435 </v>
   <v>       0.50000000       0.75000000       0.83410435 </v>
   <v>       0.25000000       0.25000000       0.00076332 </v>
   <v>       0.75000000       0.25000000       0.00076332 </v>
   <v>       0.25000000       0.75000000       0.00076332 </v>
   <v>       0.75000000       0.75000000       0.00076332 </v>
   <v>       0.25000000       0.25000000       0.33409665 </v>
   <v>       0.75000000       0.25000000       0.33409665 </v>
   <v>       0.25000000       0.75000000       0.33409665 </v>
   <v>       0.75000000       0.75000000       0.33409665 </v>
   <v>       0.25000000       0.25000000       0.66742999 </v>
   <v>       0.75000000       0.25000000       0.66742999 </v>
   <v>       0.25000000       0.75000000       0.66742999 </v>
   <v>       0.75000000       0.75000000       0.66742999 </v>
  </varray>
 </structure>
</modeling>
