 192 192   0   0
  0.1931523E+02  0.1767436E-08  0.1377516E-08  0.1580299E-08  0.5000000E-15
  1.000000000000000E-004
  CAR 
 unknown system                          
     13.14683779     -8.37014728  301      6.46165198      1.00000000
     -8.370  0.0000E+00  0.0000E+00
     -8.298  0.0000E+00  0.0000E+00
     -8.227  0.0000E+00  0.0000E+00
     -8.155  0.0000E+00  0.0000E+00
     -8.083  0.0000E+00  0.0000E+00
     -8.012  0.0000E+00  0.0000E+00
     -7.940  0.0000E+00  0.0000E+00
     -7.868  0.0000E+00  0.0000E+00
     -7.796  0.0000E+00  0.0000E+00
     -7.725  0.0000E+00  0.0000E+00
     -7.653  0.2825E-12  0.2026E-13
     -7.581  0.1548E-06  0.1110E-07
     -7.509  0.1577E-02  0.1131E-03
     -7.438  0.3676E+00  0.2648E-01
     -7.366  0.5491E+01  0.4203E+00
     -7.294  0.2298E+02  0.2069E+01
     -7.223  0.4300E+02  0.5153E+01
     -7.151  0.5039E+02  0.8767E+01
     -7.079  0.7147E+02  0.1389E+02
     -7.007  0.1041E+03  0.2136E+02
     -6.936  0.1346E+03  0.3101E+02
     -6.864  0.2015E+03  0.4547E+02
     -6.792  0.2945E+03  0.6659E+02
     -6.721  0.3594E+03  0.9236E+02
     -6.649  0.2863E+03  0.1129E+03
     -6.577  0.1785E+03  0.1257E+03
     -6.505  0.3155E+02  0.1280E+03
     -6.434  0.5094E+00  0.1280E+03
     -6.362  0.3162E-03  0.1280E+03
     -6.290  0.4593E-08  0.1280E+03
     -6.218  0.3870E-15  0.1280E+03
     -6.147  0.0000E+00  0.1280E+03
     -6.075  0.0000E+00  0.1280E+03
     -6.003  0.0000E+00  0.1280E+03
     -5.932  0.0000E+00  0.1280E+03
     -5.860  0.0000E+00  0.1280E+03
     -5.788  0.0000E+00  0.1280E+03
     -5.716  0.0000E+00  0.1280E+03
     -5.645  0.0000E+00  0.1280E+03
     -5.573  0.0000E+00  0.1280E+03
     -5.501  0.0000E+00  0.1280E+03
     -5.429  0.0000E+00  0.1280E+03
     -5.358  0.0000E+00  0.1280E+03
     -5.286  0.0000E+00  0.1280E+03
     -5.214  0.0000E+00  0.1280E+03
     -5.143  0.0000E+00  0.1280E+03
     -5.071  0.0000E+00  0.1280E+03
     -4.999  0.0000E+00  0.1280E+03
     -4.927  0.0000E+00  0.1280E+03
     -4.856  0.0000E+00  0.1280E+03
     -4.784  0.0000E+00  0.1280E+03
     -4.712  0.0000E+00  0.1280E+03
     -4.641  0.0000E+00  0.1280E+03
     -4.569  0.0000E+00  0.1280E+03
     -4.497  0.0000E+00  0.1280E+03
     -4.425  0.0000E+00  0.1280E+03
     -4.354  0.0000E+00  0.1280E+03
     -4.282  0.0000E+00  0.1280E+03
     -4.210  0.0000E+00  0.1280E+03
     -4.138  0.0000E+00  0.1280E+03
     -4.067  0.0000E+00  0.1280E+03
     -3.995  0.0000E+00  0.1280E+03
     -3.923  0.0000E+00  0.1280E+03
     -3.852  0.0000E+00  0.1280E+03
     -3.780  0.0000E+00  0.1280E+03
     -3.708  0.0000E+00  0.1280E+03
     -3.636  0.0000E+00  0.1280E+03
     -3.565  0.0000E+00  0.1280E+03
     -3.493  0.0000E+00  0.1280E+03
     -3.421  0.0000E+00  0.1280E+03
     -3.350  0.0000E+00  0.1280E+03
     -3.278  0.0000E+00  0.1280E+03
     -3.206  0.0000E+00  0.1280E+03
     -3.134  0.0000E+00  0.1280E+03
     -3.063  0.0000E+00  0.1280E+03
     -2.991  0.0000E+00  0.1280E+03
     -2.919  0.0000E+00  0.1280E+03
     -2.847  0.0000E+00  0.1280E+03
     -2.776  0.0000E+00  0.1280E+03
     -2.704  0.0000E+00  0.1280E+03
     -2.632  0.0000E+00  0.1280E+03
     -2.561  0.0000E+00  0.1280E+03
     -2.489  0.0000E+00  0.1280E+03
     -2.417  0.0000E+00  0.1280E+03
     -2.345  0.0000E+00  0.1280E+03
     -2.274  0.0000E+00  0.1280E+03
     -2.202  0.0000E+00  0.1280E+03
     -2.130  0.0000E+00  0.1280E+03
     -2.058  0.0000E+00  0.1280E+03
     -1.987  0.0000E+00  0.1280E+03
     -1.915  0.0000E+00  0.1280E+03
     -1.843  0.0000E+00  0.1280E+03
     -1.772  0.0000E+00  0.1280E+03
     -1.700  0.0000E+00  0.1280E+03
     -1.628  0.0000E+00  0.1280E+03
     -1.556  0.0000E+00  0.1280E+03
     -1.485  0.0000E+00  0.1280E+03
     -1.413  0.0000E+00  0.1280E+03
     -1.341  0.0000E+00  0.1280E+03
     -1.270  0.0000E+00  0.1280E+03
     -1.198  0.0000E+00  0.1280E+03
     -1.126  0.0000E+00  0.1280E+03
     -1.054  0.0000E+00  0.1280E+03
     -0.983  0.0000E+00  0.1280E+03
     -0.911  0.0000E+00  0.1280E+03
     -0.839  0.0000E+00  0.1280E+03
     -0.767  0.0000E+00  0.1280E+03
     -0.696  0.0000E+00  0.1280E+03
     -0.624  0.0000E+00  0.1280E+03
     -0.552  0.0000E+00  0.1280E+03
     -0.481  0.3367E-13  0.1280E+03
     -0.409  0.3825E-07  0.1280E+03
     -0.337  0.7938E-03  0.1280E+03
     -0.265  0.3451E+00  0.1280E+03
     -0.194  0.5327E+01  0.1284E+03
     -0.122  0.1339E+02  0.1294E+03
     -0.050  0.4381E+02  0.1325E+03
      0.021  0.5508E+02  0.1365E+03
      0.093  0.6457E+02  0.1411E+03
      0.165  0.2066E+03  0.1559E+03
      0.237  0.2765E+03  0.1757E+03
      0.308  0.2144E+03  0.1911E+03
      0.380  0.2336E+03  0.2079E+03
      0.452  0.2917E+03  0.2288E+03
      0.524  0.2188E+03  0.2445E+03
      0.595  0.1958E+03  0.2585E+03
      0.667  0.2095E+03  0.2736E+03
      0.739  0.2210E+03  0.2894E+03
      0.810  0.2878E+03  0.3101E+03
      0.882  0.2984E+03  0.3315E+03
      0.954  0.2606E+03  0.3501E+03
      1.026  0.3162E+03  0.3728E+03
      1.097  0.3151E+03  0.3954E+03
      1.169  0.2863E+03  0.4160E+03
      1.241  0.2397E+03  0.4331E+03
      1.312  0.2479E+03  0.4509E+03
      1.384  0.3218E+03  0.4740E+03
      1.456  0.4189E+03  0.5041E+03
      1.528  0.4098E+03  0.5334E+03
      1.599  0.4417E+03  0.5651E+03
      1.671  0.5135E+03  0.6020E+03
      1.743  0.5269E+03  0.6398E+03
      1.815  0.5147E+03  0.6767E+03
      1.886  0.3985E+03  0.7052E+03
      1.958  0.4398E+03  0.7368E+03
      2.030  0.4482E+03  0.7689E+03
      2.101  0.4697E+03  0.8026E+03
      2.173  0.5294E+03  0.8406E+03
      2.245  0.5783E+03  0.8821E+03
      2.317  0.6003E+03  0.9251E+03
      2.388  0.6710E+03  0.9733E+03
      2.460  0.6185E+03  0.1018E+04
      2.532  0.5529E+03  0.1057E+04
      2.604  0.5585E+03  0.1097E+04
      2.675  0.5697E+03  0.1138E+04
      2.747  0.6329E+03  0.1184E+04
      2.819  0.6981E+03  0.1234E+04
      2.890  0.5707E+03  0.1275E+04
      2.962  0.4722E+03  0.1308E+04
      3.034  0.4609E+03  0.1342E+04
      3.106  0.4572E+03  0.1374E+04
      3.177  0.4259E+03  0.1405E+04
      3.249  0.3719E+03  0.1432E+04
      3.321  0.2327E+03  0.1448E+04
      3.392  0.1887E+03  0.1462E+04
      3.464  0.1843E+03  0.1475E+04
      3.536  0.1902E+03  0.1489E+04
      3.608  0.2048E+03  0.1503E+04
      3.679  0.1828E+03  0.1516E+04
      3.751  0.1255E+03  0.1525E+04
      3.823  0.9496E+02  0.1532E+04
      3.895  0.9906E+02  0.1539E+04
      3.966  0.1213E+03  0.1548E+04
      4.038  0.9919E+02  0.1555E+04
      4.110  0.9928E+02  0.1562E+04
      4.181  0.1559E+03  0.1573E+04
      4.253  0.1013E+03  0.1581E+04
      4.325  0.8645E+02  0.1587E+04
      4.397  0.9321E+02  0.1594E+04
      4.468  0.9116E+02  0.1600E+04
      4.540  0.1457E+03  0.1611E+04
      4.612  0.1211E+03  0.1619E+04
      4.683  0.9198E+02  0.1626E+04
      4.755  0.1124E+03  0.1634E+04
      4.827  0.8736E+02  0.1640E+04
      4.899  0.9825E+02  0.1647E+04
      4.970  0.1678E+03  0.1659E+04
      5.042  0.1359E+03  0.1669E+04
      5.114  0.6940E+02  0.1674E+04
      5.186  0.9396E+02  0.1681E+04
      5.257  0.7302E+02  0.1686E+04
      5.329  0.1207E+03  0.1695E+04
      5.401  0.1434E+03  0.1705E+04
      5.472  0.1228E+03  0.1714E+04
      5.544  0.7418E+02  0.1719E+04
      5.616  0.8944E+02  0.1725E+04
      5.688  0.1390E+03  0.1735E+04
      5.759  0.1577E+03  0.1747E+04
      5.831  0.1088E+03  0.1755E+04
      5.903  0.1185E+03  0.1763E+04
      5.975  0.1192E+03  0.1772E+04
      6.046  0.8651E+02  0.1778E+04
      6.118  0.6496E+02  0.1782E+04
      6.190  0.4248E+02  0.1786E+04
      6.261  0.3830E+02  0.1788E+04
      6.333  0.3083E+02  0.1790E+04
      6.405  0.1473E+02  0.1792E+04
      6.477  0.7888E+01  0.1792E+04
      6.548  0.2611E+01  0.1792E+04
      6.620  0.4293E+01  0.1793E+04
      6.692  0.3034E+01  0.1793E+04
      6.763  0.2448E+01  0.1793E+04
      6.835  0.1461E+01  0.1793E+04
      6.907  0.1047E+02  0.1794E+04
      6.979  0.1510E+02  0.1795E+04
      7.050  0.1100E+02  0.1796E+04
      7.122  0.9772E+01  0.1796E+04
      7.194  0.2437E+02  0.1798E+04
      7.266  0.3171E+02  0.1800E+04
      7.337  0.1853E+02  0.1802E+04
      7.409  0.3129E+02  0.1804E+04
      7.481  0.3475E+02  0.1806E+04
      7.552  0.3688E+02  0.1809E+04
      7.624  0.5517E+02  0.1813E+04
      7.696  0.6773E+02  0.1818E+04
      7.768  0.7147E+02  0.1823E+04
      7.839  0.7477E+02  0.1828E+04
      7.911  0.6232E+02  0.1833E+04
      7.983  0.5809E+02  0.1837E+04
      8.054  0.7598E+02  0.1843E+04
      8.126  0.8164E+02  0.1848E+04
      8.198  0.8287E+02  0.1854E+04
      8.270  0.7524E+02  0.1860E+04
      8.341  0.6546E+02  0.1864E+04
      8.413  0.7357E+02  0.1870E+04
      8.485  0.8734E+02  0.1876E+04
      8.557  0.7914E+02  0.1882E+04
      8.628  0.5575E+02  0.1886E+04
      8.700  0.8039E+02  0.1891E+04
      8.772  0.8438E+02  0.1897E+04
      8.843  0.6114E+02  0.1902E+04
      8.915  0.4543E+02  0.1905E+04
      8.987  0.4115E+02  0.1908E+04
      9.059  0.5010E+02  0.1912E+04
      9.130  0.8419E+02  0.1918E+04
      9.202  0.6745E+02  0.1923E+04
      9.274  0.4948E+02  0.1926E+04
      9.346  0.5502E+02  0.1930E+04
      9.417  0.6839E+02  0.1935E+04
      9.489  0.6362E+02  0.1939E+04
      9.561  0.4188E+02  0.1942E+04
      9.632  0.6777E+02  0.1947E+04
      9.704  0.1001E+03  0.1955E+04
      9.776  0.1105E+03  0.1962E+04
      9.848  0.8930E+02  0.1969E+04
      9.919  0.7644E+02  0.1974E+04
      9.991  0.5974E+02  0.1979E+04
     10.063  0.8014E+02  0.1984E+04
     10.134  0.8951E+02  0.1991E+04
     10.206  0.9753E+02  0.1998E+04
     10.278  0.1086E+03  0.2006E+04
     10.350  0.1140E+03  0.2014E+04
     10.421  0.1104E+03  0.2022E+04
     10.493  0.9463E+02  0.2028E+04
     10.565  0.7599E+02  0.2034E+04
     10.637  0.7440E+02  0.2039E+04
     10.708  0.7140E+02  0.2044E+04
     10.780  0.6678E+02  0.2049E+04
     10.852  0.7205E+02  0.2054E+04
     10.923  0.7397E+02  0.2060E+04
     10.995  0.5459E+02  0.2064E+04
     11.067  0.8842E+02  0.2070E+04
     11.139  0.1084E+03  0.2078E+04
     11.210  0.7890E+02  0.2083E+04
     11.282  0.9665E+02  0.2090E+04
     11.354  0.8077E+02  0.2096E+04
     11.425  0.1029E+03  0.2103E+04
     11.497  0.1306E+03  0.2113E+04
     11.569  0.1186E+03  0.2121E+04
     11.641  0.1087E+03  0.2129E+04
     11.712  0.6436E+02  0.2134E+04
     11.784  0.8831E+02  0.2140E+04
     11.856  0.5681E+02  0.2144E+04
     11.928  0.2721E+02  0.2146E+04
     11.999  0.1506E+02  0.2147E+04
     12.071  0.1843E+02  0.2148E+04
     12.143  0.1462E+02  0.2150E+04
     12.214  0.6332E+01  0.2150E+04
     12.286  0.5428E+00  0.2150E+04
     12.358  0.1887E-02  0.2150E+04
     12.430  0.1652E-06  0.2150E+04
     12.501  0.2887E-12  0.2150E+04
     12.573  0.0000E+00  0.2150E+04
     12.645  0.0000E+00  0.2150E+04
     12.716  0.0000E+00  0.2150E+04
     12.788  0.0000E+00  0.2150E+04
     12.860  0.0000E+00  0.2150E+04
     12.932  0.0000E+00  0.2150E+04
     13.003  0.0000E+00  0.2150E+04
     13.075  0.0000E+00  0.2150E+04
     13.147  0.0000E+00  0.2150E+04
