 vasp.5.4.4.18Apr17-6-g9f103f2a35 (build Jul 30 2020 14:31:59) complex          
  
 executed on             LinuxIFC date 2021.02.04  08:07:51
 running on   20 total cores
 distrk:  each k-point on   10 cores,    2 groups
 distr:  one band on NCORES_PER_BAND=  10 cores,    1 groups


--------------------------------------------------------------------------------------------------------


 INCAR:
 POTCAR:    PAW_PBE Ag 02Apr2005                  
 POTCAR:    PAW_PBE Se 06Sep2000                  

 ----------------------------------------------------------------------------- 
|                                                                             |
|           W    W    AA    RRRRR   N    N  II  N    N   GGGG   !!!           |
|           W    W   A  A   R    R  NN   N  II  NN   N  G    G  !!!           |
|           W    W  A    A  R    R  N N  N  II  N N  N  G       !!!           |
|           W WW W  AAAAAA  RRRRR   N  N N  II  N  N N  G  GGG   !            |
|           WW  WW  A    A  R   R   N   NN  II  N   NN  G    G                |
|           W    W  A    A  R    R  N    N  II  N    N   GGGG   !!!           |
|                                                                             |
|      For optimal performance we recommend to set                            |
|        NCORE= 4 - approx SQRT( number of cores)                             |
|      NCORE specifies how many cores store one orbital (NPAR=cpu/NCORE).     |
|      This setting can  greatly improve the performance of VASP for DFT.     |
|      The default,   NCORE=1            might be grossly inefficient         |
|      on modern multi-core architectures or massively parallel machines.     |
|      Do your own testing !!!!                                               |
|      Unfortunately you need to use the default for GW and RPA calculations. |
|      (for HF NCORE is supported but not extensively tested yet)             |
|                                                                             |
 ----------------------------------------------------------------------------- 


 ----------------------------------------------------------------------------- 
|                                                                             |
|           W    W    AA    RRRRR   N    N  II  N    N   GGGG   !!!           |
|           W    W   A  A   R    R  NN   N  II  NN   N  G    G  !!!           |
|           W    W  A    A  R    R  N N  N  II  N N  N  G       !!!           |
|           W WW W  AAAAAA  RRRRR   N  N N  II  N  N N  G  GGG   !            |
|           WW  WW  A    A  R   R   N   NN  II  N   NN  G    G                |
|           W    W  A    A  R    R  N    N  II  N    N   GGGG   !!!           |
|                                                                             |
|      You have enabled k-point parallelism (KPAR>1).                         |
|      This developmental code was originally  written by Paul Kent at ORNL,  |
|      and carefully double checked in Vienna.                                |
|      GW as well as linear response parallelism added by Martijn Marsman     |
|      and Georg Kresse.                                                      |
|      Carefully verify results versus KPAR=1.                                |
|      Report problems to Paul Kent and Vienna.                               |
|                                                                             |
 ----------------------------------------------------------------------------- 

 POTCAR:    PAW_PBE Ag 02Apr2005                  
   VRHFIN =Ag : s1 d10                                                          
   LEXCH  = PE                                                                  
   EATOM  =  1037.2675 eV,   76.2370 Ry                                         
                                                                                
   TITEL  = PAW_PBE Ag 02Apr2005                                                
   LULTRA =        F    use ultrasoft PP ?                                      
   IUNSCR =        1    unscreen: 0-lin 1-nonlin 2-no                           
   RPACOR =    2.000    partial core radius                                     
   POMASS =  107.868; ZVAL   =   11.000    mass and valenz                      
   RCORE  =    2.500    outmost cutoff radius                                   
   RWIGS  =    2.840; RWIGS  =    1.503    wigner-seitz radius (au A)           
   ENMAX  =  249.844; ENMIN  =  187.383 eV                                      
   ICORE  =        3    local potential                                         
   LCOR   =        T    correct aug charges                                     
   LPAW   =        T    paw PP                                                  
   EAUG   =  412.496                                                            
   DEXC   =    0.000                                                            
   RMAX   =    2.560    core radius for proj-oper                               
   RAUG   =    1.300    factor for augmentation sphere                          
   RDEP   =    2.576    radius for radial grids                                 
   RDEPT  =    2.072    core radius for aug-charge                              
                                                                                
   Atomic configuration                                                         
   12 entries                                                                   
     n  l   j            E        occ.                                          
     1  0  0.50    -25324.9161   2.0000                                         
     2  0  0.50     -3728.5341   2.0000                                         
     2  1  1.50     -3344.0404   6.0000                                         
     3  0  0.50      -683.5581   2.0000                                         
     3  1  1.50      -557.3225   6.0000                                         
     3  2  2.50      -358.3853  10.0000                                         
     4  0  0.50       -95.0341   2.0000                                         
     4  1  1.50       -58.5511   6.0000                                         
     4  2  2.50        -7.4440  10.0000                                         
     5  0  0.50        -4.4045   1.0000                                         
     5  1  0.50        -1.3606   0.0000                                         
     4  3  2.50        -1.3606   0.0000                                         
   Description                                                                  
     l       E           TYP  RCUT    TYP  RCUT                                 
     2     -7.4439781     23  2.400                                             
     2     -8.8045607     23  2.400                                             
     0     -4.4044681     23  2.400                                             
     0      1.9520038     23  2.400                                             
     1     -1.3605826     23  2.500                                             
     1     27.2116520     23  2.500                                             
     3     -4.0817478     23  2.400                                             
  local pseudopotential read in
  partial core-charges read in
  partial kinetic energy density read in
  atomic valenz-charges read in
  non local Contribution for L=           2  read in
    real space projection operators read in
  non local Contribution for L=           2  read in
    real space projection operators read in
  non local Contribution for L=           0  read in
    real space projection operators read in
  non local Contribution for L=           0  read in
    real space projection operators read in
  non local Contribution for L=           1  read in
    real space projection operators read in
  non local Contribution for L=           1  read in
    real space projection operators read in
    PAW grid and wavefunctions read in
 
   number of l-projection  operators is LMAX  =           6
   number of lm-projection operators is LMMAX =          18
 
 POTCAR:    PAW_PBE Se 06Sep2000                  
   VRHFIN =Se: s2p4                                                             
   LEXCH  = PE                                                                  
   EATOM  =   257.1286 eV,   18.8984 Ry                                         
                                                                                
   TITEL  = PAW_PBE Se 06Sep2000                                                
   LULTRA =        F    use ultrasoft PP ?                                      
   IUNSCR =        1    unscreen: 0-lin 1-nonlin 2-no                           
   RPACOR =    1.900    partial core radius                                     
   POMASS =   78.960; ZVAL   =    6.000    mass and valenz                      
   RCORE  =    2.100    outmost cutoff radius                                   
   RWIGS  =    2.200; RWIGS  =    1.164    wigner-seitz radius (au A)           
   ENMAX  =  211.555; ENMIN  =  158.666 eV                                      
   ICORE  =        3    local potential                                         
   LCOR   =        T    correct aug charges                                     
   LPAW   =        T    paw PP                                                  
   EAUG   =  446.842                                                            
   DEXC   =    0.000                                                            
   RMAX   =    2.147    core radius for proj-oper                               
   RAUG   =    1.300    factor for augmentation sphere                          
   RDEP   =    2.177    radius for radial grids                                 
   RDEPT  =    1.928    core radius for aug-charge                              
                                                                                
   Atomic configuration                                                         
   10 entries                                                                   
     n  l   j            E        occ.                                          
     1  0  0.50    -12503.4787   2.0000                                         
     2  0  0.50     -1606.9547   2.0000                                         
     2  1  1.50     -1413.3140   6.0000                                         
     3  0  0.50      -213.4885   2.0000                                         
     3  1  1.50      -152.9538   6.0000                                         
     3  2  2.50       -53.1221  10.0000                                         
     4  0  0.50       -17.2865   2.0000                                         
     4  1  0.50        -6.5110   4.0000                                         
     4  2  2.50        -6.8029   0.0000                                         
     4  3  2.50        -6.8029   0.0000                                         
   Description                                                                  
     l       E           TYP  RCUT    TYP  RCUT                                 
     0    -17.2865377     23  2.100                                             
     0    -15.3094411     23  2.100                                             
     1     -6.5110275     23  2.100                                             
     1     -0.0695192     23  2.100                                             
     2     -6.8029130     23  2.100                                             
     3     -1.3605826      7  2.100                                             
  local pseudopotential read in
  partial core-charges read in
  partial kinetic energy density read in
  atomic valenz-charges read in
  non local Contribution for L=           0  read in
    real space projection operators read in
  non local Contribution for L=           0  read in
    real space projection operators read in
  non local Contribution for L=           1  read in
    real space projection operators read in
  non local Contribution for L=           1  read in
    real space projection operators read in
  non local Contribution for L=           2  read in
    real space projection operators read in
    PAW grid and wavefunctions read in
 
   number of l-projection  operators is LMAX  =           5
   number of lm-projection operators is LMMAX =          13
 

 ----------------------------------------------------------------------------- 
|                                                                             |
|  ADVICE TO THIS USER RUNNING 'VASP/VAMP'   (HEAR YOUR MASTER'S VOICE ...):  |
|                                                                             |
|      You have a (more or less) 'large supercell' and for larger cells       |
|      it might be more efficient to use real space projection opertators     |
|      So try LREAL= Auto  in the INCAR   file.                               |
|      Mind:          For very  accurate calculation you might also keep the  |
|      reciprocal projection scheme          (i.e. LREAL=.FALSE.)             |
|                                                                             |
 ----------------------------------------------------------------------------- 


 ----------------------------------------------------------------------------- 
|                                                                             |
|  ADVICE TO THIS USER RUNNING 'VASP/VAMP'   (HEAR YOUR MASTER'S VOICE ...):  |
|                                                                             |
|      You enforced a specific xc-type in the INCAR file,                     |
|      a different type was found on the POTCAR file                          |
|          I HOPE YOU KNOW, WHAT YOU ARE  DOING                               |
|                                                                             |
 ----------------------------------------------------------------------------- 

  PAW_PBE Ag 02Apr2005                  :
 energy of atom  1       EATOM=-1037.2675
 kinetic energy error for atom=    0.0011 (will be added to EATOM!!)
  PAW_PBE Se 06Sep2000                  :
 energy of atom  2       EATOM= -257.1286
 kinetic energy error for atom=    0.0005 (will be added to EATOM!!)
 
 
 POSCAR: # Compound: Ag96Se48. Old comment: Ag2Se
  positions in direct lattice
  No initial velocities read in
 exchange correlation table for  LEXCH =       14
   RHO(1)=    0.500       N(1)  =     2000
   RHO(2)=  100.500       N(2)  =     4000
 


--------------------------------------------------------------------------------------------------------


 ion  position               nearest neighbor table
   1  0.430  0.172  0.332- 102 2.68 137 2.74 122 2.81  86 2.84 126 2.85  65 2.87  61 2.87  14 2.92

   2  0.930  0.172  0.332- 101 2.68 138 2.74 121 2.81  85 2.84 125 2.85  66 2.87  62 2.87  13 2.92

   3  0.430  0.672  0.332- 104 2.68 139 2.74 124 2.81  88 2.84 128 2.85  67 2.87  63 2.87  16 2.92

   4  0.930  0.672  0.332- 103 2.68 140 2.74 123 2.81  87 2.84 127 2.85  68 2.87  64 2.87  15 2.92

   5  0.430  0.172  0.666- 106 2.68 141 2.74 126 2.81  90 2.84 130 2.85  69 2.87  65 2.87  18 2.92

   6  0.930  0.172  0.666- 105 2.68 142 2.74 125 2.81  89 2.84 129 2.85  70 2.87  66 2.87  17 2.92

   7  0.430  0.672  0.666- 108 2.68 143 2.74 128 2.81  92 2.84 132 2.85  71 2.87  67 2.87  20 2.92

   8  0.930  0.672  0.666- 107 2.68 144 2.74 127 2.81  91 2.84 131 2.85  72 2.87  68 2.87  19 2.92

   9  0.430  0.172  0.999-  98 2.68 133 2.74 130 2.81  94 2.84 122 2.85  61 2.87  69 2.87  22 2.92

  10  0.930  0.172  0.999-  97 2.68 134 2.74 129 2.81  93 2.84 121 2.85  62 2.87  70 2.87  21 2.92

  11  0.430  0.672  0.999- 100 2.68 135 2.74 132 2.81  96 2.84 124 2.85  63 2.87  71 2.87  24 2.92

  12  0.930  0.672  0.999-  99 2.68 136 2.74 131 2.81  95 2.84 123 2.85  64 2.87  72 2.87  23 2.92

  13  0.070  0.328  0.332- 103 2.68 137 2.74 121 2.81  74 2.84 125 2.85  53 2.87  49 2.87   2 2.92

  14  0.570  0.328  0.332- 104 2.68 138 2.74 122 2.81  73 2.84 126 2.85  54 2.87  50 2.87   1 2.92

  15  0.070  0.828  0.332- 101 2.68 139 2.74 123 2.81  76 2.84 127 2.85  55 2.87  51 2.87   4 2.92

  16  0.570  0.828  0.332- 102 2.68 140 2.74 124 2.81  75 2.84 128 2.85  56 2.87  52 2.87   3 2.92

  17  0.070  0.328  0.666- 107 2.68 141 2.74 125 2.81  78 2.84 129 2.85  57 2.87  53 2.87   6 2.92

  18  0.570  0.328  0.666- 108 2.68 142 2.74 126 2.81  77 2.84 130 2.85  58 2.87  54 2.87   5 2.92

  19  0.070  0.828  0.666- 105 2.68 143 2.74 127 2.81  80 2.84 131 2.85  59 2.87  55 2.87   8 2.92

  20  0.570  0.828  0.666- 106 2.68 144 2.74 128 2.81  79 2.84 132 2.85  60 2.87  56 2.87   7 2.92

  21  0.070  0.328  0.999-  99 2.68 133 2.74 129 2.81  82 2.84 121 2.85  49 2.87  57 2.87  10 2.92

  22  0.570  0.328  0.999- 100 2.68 134 2.74 130 2.81  81 2.84 122 2.85  50 2.87  58 2.87   9 2.92

  23  0.070  0.828  0.999-  97 2.68 135 2.74 131 2.81  84 2.84 123 2.85  51 2.87  59 2.87  12 2.92

  24  0.570  0.828  0.999-  98 2.68 136 2.74 132 2.81  83 2.84 124 2.85  52 2.87  60 2.87  11 2.92

  25  0.320  0.422  0.056- 133 2.68 100 2.74 111 2.82 119 2.84  49 2.84  81 2.86  73 2.88  39 2.92

  26  0.820  0.422  0.056- 134 2.68  99 2.74 112 2.81  50 2.84 120 2.85  82 2.87  74 2.87  40 2.92

  27  0.320  0.922  0.056- 135 2.68  98 2.74 109 2.81  51 2.84 117 2.85  83 2.87  75 2.87  37 2.92

  28  0.820  0.922  0.056- 136 2.68  97 2.74 110 2.81  52 2.84 118 2.85  84 2.87  76 2.87  38 2.92

  29  0.320  0.422  0.390- 137 2.68 104 2.74 115 2.81  53 2.84 111 2.85  73 2.87  77 2.87  43 2.92

  30  0.820  0.422  0.390- 138 2.68 103 2.74 116 2.81  54 2.84 112 2.85  74 2.87  78 2.87  44 2.92

  31  0.320  0.922  0.390- 139 2.68 102 2.74 113 2.81  55 2.84 109 2.85  75 2.87  79 2.87  41 2.92

  32  0.820  0.922  0.390- 140 2.68 101 2.74 114 2.81  56 2.84 110 2.85  76 2.87  80 2.87  42 2.92

  33  0.320  0.422  0.723- 141 2.68 108 2.74 119 2.81  57 2.84 115 2.85  77 2.87  81 2.87  47 2.92

  34  0.820  0.422  0.723- 142 2.68 107 2.74 120 2.81  58 2.84 116 2.85  78 2.87  82 2.87  48 2.92

  35  0.320  0.922  0.723- 143 2.68 106 2.74 117 2.81  59 2.84 113 2.85  79 2.87  83 2.87  45 2.92

  36  0.820  0.922  0.723- 144 2.68 105 2.74 118 2.81  60 2.84 114 2.85  80 2.87  84 2.87  46 2.92

  37  0.180  0.078  0.056- 133 2.68  97 2.74 109 2.81  61 2.84 117 2.85  93 2.87  85 2.87  27 2.92

  38  0.680  0.078  0.056- 134 2.68  98 2.74 110 2.81  62 2.84 118 2.85  94 2.87  86 2.87  28 2.92

  39  0.180  0.578  0.056- 135 2.68  99 2.74 111 2.81  63 2.84 119 2.85  95 2.87  87 2.87  25 2.92

  40  0.680  0.578  0.056- 136 2.68 100 2.74 112 2.81  64 2.84 120 2.85  96 2.87  88 2.87  26 2.92

  41  0.180  0.078  0.390- 137 2.68 101 2.74 113 2.81  65 2.84 109 2.85  85 2.87  89 2.87  31 2.92

  42  0.680  0.078  0.390- 138 2.68 102 2.74 114 2.81  66 2.84 110 2.85  86 2.87  90 2.87  32 2.92

  43  0.180  0.578  0.390- 139 2.68 103 2.74 115 2.81  67 2.84 111 2.85  87 2.87  91 2.87  29 2.92

  44  0.680  0.578  0.390- 140 2.68 104 2.74 116 2.81  68 2.84 112 2.85  88 2.87  92 2.87  30 2.92

  45  0.180  0.078  0.723- 141 2.68 105 2.74 117 2.81  69 2.84 113 2.85  89 2.87  93 2.87  35 2.92

  46  0.680  0.078  0.723- 142 2.68 106 2.74 118 2.81  70 2.84 114 2.85  90 2.87  94 2.87  36 2.92

  47  0.180  0.578  0.723- 143 2.68 107 2.74 119 2.81  71 2.84 115 2.85  91 2.87  95 2.87  33 2.92

  48  0.680  0.578  0.723- 144 2.68 108 2.74 120 2.81  72 2.84 116 2.85  92 2.87  96 2.87  34 2.92

  49  0.180  0.328  0.166- 111 2.68 121 2.74 133 2.81  25 2.84 137 2.85  21 2.87  13 2.87  61 2.92

  50  0.680  0.328  0.166- 112 2.68 122 2.74 134 2.81  26 2.84 138 2.85  22 2.87  14 2.87  62 2.92

  51  0.180  0.828  0.166- 109 2.68 123 2.74 135 2.81  27 2.84 139 2.85  23 2.87  15 2.87  63 2.92

  52  0.680  0.828  0.166- 110 2.68 124 2.74 136 2.81  28 2.84 140 2.85  24 2.87  16 2.87  64 2.92

  53  0.180  0.328  0.499- 115 2.68 125 2.74 137 2.81  29 2.84 141 2.85  13 2.87  17 2.87  65 2.92

  54  0.680  0.328  0.499- 116 2.68 126 2.74 138 2.81  30 2.84 142 2.85  14 2.87  18 2.87  66 2.92

  55  0.180  0.828  0.499- 113 2.68 127 2.74 139 2.81  31 2.84 143 2.85  15 2.87  19 2.87  67 2.92

  56  0.680  0.828  0.499- 114 2.68 128 2.74 140 2.81  32 2.84 144 2.85  16 2.87  20 2.87  68 2.92

  57  0.180  0.328  0.832- 119 2.68 129 2.74 141 2.81  33 2.84 133 2.85  17 2.87  21 2.87  69 2.92

  58  0.680  0.328  0.832- 120 2.68 130 2.74 142 2.81  34 2.84 134 2.85  18 2.87  22 2.87  70 2.92

  59  0.180  0.828  0.832- 117 2.68 131 2.74 143 2.81  35 2.84 135 2.85  19 2.87  23 2.87  71 2.92

  60  0.680  0.828  0.832- 118 2.68 132 2.74 144 2.81  36 2.84 136 2.85  20 2.87  24 2.87  72 2.92

  61  0.320  0.172  0.166- 109 2.68 122 2.74 133 2.81  37 2.84 137 2.85   9 2.87   1 2.87  49 2.92

  62  0.820  0.172  0.166- 110 2.68 121 2.74 134 2.81  38 2.84 138 2.85  10 2.87   2 2.87  50 2.92

  63  0.320  0.672  0.166- 111 2.68 124 2.74 135 2.81  39 2.84 139 2.85  11 2.87   3 2.87  51 2.92

  64  0.820  0.672  0.166- 112 2.68 123 2.74 136 2.81  40 2.84 140 2.85  12 2.87   4 2.87  52 2.92

  65  0.320  0.172  0.499- 113 2.68 126 2.74 137 2.81  41 2.84 141 2.85   1 2.87   5 2.87  53 2.92

  66  0.820  0.172  0.499- 114 2.68 125 2.74 138 2.81  42 2.84 142 2.85   2 2.87   6 2.87  54 2.92

  67  0.320  0.672  0.499- 115 2.68 128 2.74 139 2.81  43 2.84 143 2.85   3 2.87   7 2.87  55 2.92

  68  0.820  0.672  0.499- 116 2.68 127 2.74 140 2.81  44 2.84 144 2.85   4 2.87   8 2.87  56 2.92

  69  0.320  0.172  0.832- 117 2.68 130 2.74 141 2.81  45 2.84 133 2.85   5 2.87   9 2.87  57 2.92

  70  0.820  0.172  0.832- 118 2.68 129 2.74 142 2.81  46 2.84 134 2.85   6 2.87  10 2.87  58 2.92

  71  0.320  0.672  0.832- 119 2.68 132 2.74 143 2.81  47 2.84 135 2.85   7 2.87  11 2.87  59 2.92

  72  0.820  0.672  0.832- 120 2.68 131 2.74 144 2.81  48 2.84 136 2.85   8 2.87  12 2.87  60 2.92

  73  0.430  0.422  0.223- 122 2.68 111 2.74 104 2.81  14 2.84 100 2.85  29 2.87  25 2.88  88 2.92

  74  0.930  0.422  0.223- 121 2.68 112 2.74 103 2.81  13 2.84  99 2.85  30 2.87  26 2.87  87 2.92

  75  0.430  0.922  0.223- 124 2.68 109 2.74 102 2.81  16 2.84  98 2.85  31 2.87  27 2.87  86 2.92

  76  0.930  0.922  0.223- 123 2.68 110 2.74 101 2.81  15 2.84  97 2.85  32 2.87  28 2.87  85 2.92

  77  0.430  0.422  0.556- 126 2.68 115 2.74 108 2.81  18 2.84 104 2.85  33 2.87  29 2.87  92 2.92

  78  0.930  0.422  0.556- 125 2.68 116 2.74 107 2.81  17 2.84 103 2.85  34 2.87  30 2.87  91 2.92

  79  0.430  0.922  0.556- 128 2.68 113 2.74 106 2.81  20 2.84 102 2.85  35 2.87  31 2.87  90 2.92

  80  0.930  0.922  0.556- 127 2.68 114 2.74 105 2.81  19 2.84 101 2.85  36 2.87  32 2.87  89 2.92

  81  0.430  0.422  0.890- 130 2.68 119 2.74 100 2.81  22 2.84 108 2.85  25 2.86  33 2.87  96 2.92

  82  0.930  0.422  0.890- 129 2.68 120 2.74  99 2.81  21 2.84 107 2.85  26 2.87  34 2.87  95 2.92

  83  0.430  0.922  0.890- 132 2.68 117 2.74  98 2.81  24 2.84 106 2.85  27 2.87  35 2.87  94 2.92

  84  0.930  0.922  0.890- 131 2.68 118 2.74  97 2.81  23 2.84 105 2.85  28 2.87  36 2.87  93 2.92

  85  0.070  0.078  0.223- 121 2.68 109 2.74 101 2.81   2 2.84  97 2.85  41 2.87  37 2.87  76 2.92

  86  0.570  0.078  0.223- 122 2.68 110 2.74 102 2.81   1 2.84  98 2.85  42 2.87  38 2.87  75 2.92

  87  0.070  0.578  0.223- 123 2.68 111 2.74 103 2.81   4 2.84  99 2.85  43 2.87  39 2.87  74 2.92

  88  0.570  0.578  0.223- 124 2.68 112 2.74 104 2.81   3 2.84 100 2.85  44 2.87  40 2.87  73 2.92

  89  0.070  0.078  0.556- 125 2.68 113 2.74 105 2.81   6 2.84 101 2.85  45 2.87  41 2.87  80 2.92

  90  0.570  0.078  0.556- 126 2.68 114 2.74 106 2.81   5 2.84 102 2.85  46 2.87  42 2.87  79 2.92

  91  0.070  0.578  0.556- 127 2.68 115 2.74 107 2.81   8 2.84 103 2.85  47 2.87  43 2.87  78 2.92

  92  0.570  0.578  0.556- 128 2.68 116 2.74 108 2.81   7 2.84 104 2.85  48 2.87  44 2.87  77 2.92

  93  0.070  0.078  0.890- 129 2.68 117 2.74  97 2.81  10 2.84 105 2.85  37 2.87  45 2.87  84 2.92

  94  0.570  0.078  0.890- 130 2.68 118 2.74  98 2.81   9 2.84 106 2.85  38 2.87  46 2.87  83 2.92

  95  0.070  0.578  0.890- 131 2.68 119 2.74  99 2.81  12 2.84 107 2.85  39 2.87  47 2.87  82 2.92

  96  0.570  0.578  0.890- 132 2.68 120 2.74 100 2.81  11 2.84 108 2.85  40 2.87  48 2.87  81 2.92

  97  0.000  0.000  0.055-  10 2.68  23 2.68  28 2.74  37 2.74  84 2.81  93 2.81  85 2.85  76 2.85

  98  0.500  0.000  0.055-   9 2.68  24 2.68  27 2.74  38 2.74  83 2.81  94 2.81  86 2.85  75 2.85

  99  0.000  0.500  0.055-  12 2.68  21 2.68  26 2.74  39 2.74  82 2.81  95 2.81  87 2.85  74 2.85

 100  0.500  0.500  0.055-  11 2.68  22 2.68  25 2.74  40 2.74  81 2.81  96 2.81  88 2.85  73 2.85

 101  0.000  0.000  0.388-   2 2.68  15 2.68  32 2.74  41 2.74  76 2.81  85 2.81  80 2.85  89 2.85

 102  0.500  0.000  0.388-   1 2.68  16 2.68  31 2.74  42 2.74  75 2.81  86 2.81  79 2.85  90 2.85

 103  0.000  0.500  0.388-   4 2.68  13 2.68  30 2.74  43 2.74  74 2.81  87 2.81  78 2.85  91 2.85

 104  0.500  0.500  0.388-   3 2.68  14 2.68  29 2.74  44 2.74  73 2.81  88 2.81  77 2.85  92 2.85

 105  0.000  0.000  0.721-   6 2.68  19 2.68  36 2.74  45 2.74  80 2.81  89 2.81  84 2.85  93 2.85

 106  0.500  0.000  0.721-   5 2.68  20 2.68  35 2.74  46 2.74  79 2.81  90 2.81  83 2.85  94 2.85

 107  0.000  0.500  0.721-   8 2.68  17 2.68  34 2.74  47 2.74  78 2.81  91 2.81  82 2.85  95 2.85

 108  0.500  0.500  0.721-   7 2.68  18 2.68  33 2.74  48 2.74  77 2.81  92 2.81  81 2.85  96 2.85

 109  0.250  0.000  0.221-  51 2.68  61 2.68  75 2.74  85 2.74  27 2.81  37 2.81  31 2.85  41 2.85

 110  0.750  0.000  0.221-  52 2.68  62 2.68  76 2.74  86 2.74  28 2.81  38 2.81  32 2.85  42 2.85

 111  0.250  0.500  0.221-  49 2.68  63 2.68  73 2.74  87 2.74  39 2.81  25 2.82  29 2.85  43 2.85

 112  0.750  0.500  0.221-  50 2.68  64 2.68  74 2.74  88 2.74  26 2.81  40 2.81  30 2.85  44 2.85

 113  0.250  0.000  0.555-  55 2.68  65 2.68  79 2.74  89 2.74  31 2.81  41 2.81  35 2.85  45 2.85

 114  0.750  0.000  0.555-  56 2.68  66 2.68  80 2.74  90 2.74  32 2.81  42 2.81  36 2.85  46 2.85

 115  0.250  0.500  0.555-  53 2.68  67 2.68  77 2.74  91 2.74  29 2.81  43 2.81  33 2.85  47 2.85

 116  0.750  0.500  0.555-  54 2.68  68 2.68  78 2.74  92 2.74  30 2.81  44 2.81  34 2.85  48 2.85

 117  0.250  0.000  0.888-  59 2.68  69 2.68  83 2.74  93 2.74  35 2.81  45 2.81  37 2.85  27 2.85

 118  0.750  0.000  0.888-  60 2.68  70 2.68  84 2.74  94 2.74  36 2.81  46 2.81  38 2.85  28 2.85

 119  0.250  0.500  0.888-  57 2.68  71 2.68  81 2.74  95 2.74  33 2.81  47 2.81  25 2.84  39 2.85

 120  0.750  0.500  0.888-  58 2.68  72 2.68  82 2.74  96 2.74  34 2.81  48 2.81  40 2.85  26 2.85

 121  0.000  0.250  0.167-  74 2.68  85 2.68  49 2.74  62 2.74   2 2.81  13 2.81  10 2.85  21 2.85

 122  0.500  0.250  0.167-  73 2.68  86 2.68  50 2.74  61 2.74   1 2.81  14 2.81   9 2.85  22 2.85

 123  0.000  0.750  0.167-  76 2.68  87 2.68  51 2.74  64 2.74   4 2.81  15 2.81  12 2.85  23 2.85

 124  0.500  0.750  0.167-  75 2.68  88 2.68  52 2.74  63 2.74   3 2.81  16 2.81  11 2.85  24 2.85

 125  0.000  0.250  0.501-  78 2.68  89 2.68  53 2.74  66 2.74   6 2.81  17 2.81  13 2.85   2 2.85

 126  0.500  0.250  0.501-  77 2.68  90 2.68  54 2.74  65 2.74   5 2.81  18 2.81  14 2.85   1 2.85

 127  0.000  0.750  0.501-  80 2.68  91 2.68  55 2.74  68 2.74   8 2.81  19 2.81  15 2.85   4 2.85

 128  0.500  0.750  0.501-  79 2.68  92 2.68  56 2.74  67 2.74   7 2.81  20 2.81  16 2.85   3 2.85

 129  0.000  0.250  0.834-  82 2.68  93 2.68  57 2.74  70 2.74  10 2.81  21 2.81  17 2.85   6 2.85

 130  0.500  0.250  0.834-  81 2.68  94 2.68  58 2.74  69 2.74   9 2.81  22 2.81  18 2.85   5 2.85

 131  0.000  0.750  0.834-  84 2.68  95 2.68  59 2.74  72 2.74  12 2.81  23 2.81  19 2.85   8 2.85

 132  0.500  0.750  0.834-  83 2.68  96 2.68  60 2.74  71 2.74  11 2.81  24 2.81  20 2.85   7 2.85

 133  0.250  0.250  0.001-  25 2.68  37 2.68   9 2.74  21 2.74  49 2.81  61 2.81  57 2.85  69 2.85

 134  0.750  0.250  0.001-  26 2.68  38 2.68  10 2.74  22 2.74  50 2.81  62 2.81  58 2.85  70 2.85

 135  0.250  0.750  0.001-  27 2.68  39 2.68  11 2.74  23 2.74  51 2.81  63 2.81  59 2.85  71 2.85

 136  0.750  0.750  0.001-  28 2.68  40 2.68  12 2.74  24 2.74  52 2.81  64 2.81  60 2.85  72 2.85

 137  0.250  0.250  0.334-  29 2.68  41 2.68   1 2.74  13 2.74  53 2.81  65 2.81  61 2.85  49 2.85

 138  0.750  0.250  0.334-  30 2.68  42 2.68   2 2.74  14 2.74  54 2.81  66 2.81  62 2.85  50 2.85

 139  0.250  0.750  0.334-  31 2.68  43 2.68   3 2.74  15 2.74  55 2.81  67 2.81  63 2.85  51 2.85

 140  0.750  0.750  0.334-  32 2.68  44 2.68   4 2.74  16 2.74  56 2.81  68 2.81  64 2.85  52 2.85

 141  0.250  0.250  0.667-  33 2.68  45 2.68   5 2.74  17 2.74  57 2.81  69 2.81  65 2.85  53 2.85

 142  0.750  0.250  0.667-  34 2.68  46 2.68   6 2.74  18 2.74  58 2.81  70 2.81  66 2.85  54 2.85

 143  0.250  0.750  0.667-  35 2.68  47 2.68   7 2.74  19 2.74  59 2.81  71 2.81  67 2.85  55 2.85

 144  0.750  0.750  0.667-  36 2.68  48 2.68   8 2.74  20 2.74  60 2.81  72 2.81  68 2.85  56 2.85

 

IMPORTANT INFORMATION: All symmetrisations will be switched off!
NOSYMM: (Re-)initialisation of all symmetry stuff for point group C_1.

 
 
 KPOINTS: # No comment                            

Automatic generation of k-mesh.
Space group operators:
 irot       det(A)        alpha          n_x          n_y          n_z        tau_x        tau_y        tau_z
    1     1.000000     0.000000     1.000000     0.000000     0.000000     0.000000     0.000000     0.000000
 
 Subroutine IBZKPT returns following result:
 ===========================================
 
 Found      8 irreducible k-points:
 
 Following reciprocal coordinates:
            Coordinates               Weight
  0.000000  0.000000  0.000000      1.000000
  0.500000 -0.000000  0.000000      1.000000
  0.000000  0.500000  0.000000      1.000000
  0.500000  0.500000  0.000000      1.000000
  0.000000  0.000000  0.500000      1.000000
  0.500000 -0.000000  0.500000      1.000000
  0.000000  0.500000  0.500000      1.000000
  0.500000  0.500000  0.500000      1.000000
 
 Following cartesian coordinates:
            Coordinates               Weight
  0.000000  0.000000  0.000000      1.000000
  0.035688  0.000004  0.000000      1.000000
 -0.000004  0.036319  0.000000      1.000000
  0.035684  0.036323  0.000000      1.000000
  0.000000  0.000000  0.034364      1.000000
  0.035688  0.000004  0.034364      1.000000
 -0.000004  0.036319  0.034364      1.000000
  0.035684  0.036323  0.034364      1.000000
 


--------------------------------------------------------------------------------------------------------




 Dimension of arrays:
   k-points           NKPTS =      8   k-points in BZ     NKDIM =      8   number of bands    NBANDS=    806
   number of dos      NEDOS =    301   number of ions     NIONS =    144
   non local maximal  LDIM  =      6   non local SUM 2l+1 LMDIM =     18
   total plane-waves  NPLWV = ******
   max r-space proj   IRMAX =      1   max aug-charges    IRDMAX= 254476
   dimension x,y,z NGX =   120 NGY =  120 NGZ =  126
   dimension x,y,z NGXF=   240 NGYF=  240 NGZF=  252
   support grid    NGXF=   480 NGYF=  480 NGZF=  504
   ions per type =              96  48
   NGX,Y,Z   is equivalent  to a cutoff of  14.24, 14.49, 14.40 a.u.
   NGXF,Y,Z  is equivalent  to a cutoff of  28.48, 28.98, 28.79 a.u.

 SYSTEM =  unknown system                          
 POSCAR =  # Compound: Ag96Se48. Old comment: Ag2Se

 Startparameter for this run:
   NWRITE =      2    write-flag & timer
   PREC   = accura    normal or accurate (medium, high low for compatibility)
   ISTART =      0    job   : 0-new  1-cont  2-samecut
   ICHARG =      2    charge: 1-file 2-atom 10-const
   ISPIN  =      1    spin polarized calculation?
   LNONCOLLINEAR =      F non collinear calculations
   LSORBIT =      F    spin-orbit coupling
   INIWAV =      1    electr: 0-lowe 1-rand  2-diag
   LASPH  =      T    aspherical Exc in radial PAW
   METAGGA=      F    non-selfconsistent MetaGGA calc.

 Electronic Relaxation 1
   ENCUT  =  650.0 eV  47.77 Ry    6.91 a.u.  29.12 28.62 30.25*2*pi/ulx,y,z
   ENINI  =  650.0     initial cutoff
   ENAUG  =  446.8 eV  augmentation charge cutoff
   NELM   =    200;   NELMIN=  8; NELMDL= -5     # of ELM steps 
   EDIFF  = 0.1E-07   stopping-criterion for ELM
   LREAL  =      F    real-space projection
   NLSPLINE    = F    spline interpolate recip. space projectors
   LCOMPAT=      F    compatible to vasp.4.4
   GGA_COMPAT  = T    GGA compatible to vasp.4.4-vasp.4.6
   LMAXPAW     = -100 max onsite density
   LMAXMIX     =    2 max onsite mixed and CHGCAR
   VOSKOWN=      0    Vosko Wilk Nusair interpolation
   ROPT   =    0.00000   0.00000
 Ionic relaxation
   EDIFFG = 0.1E-06   stopping-criterion for IOM
   NSW    =      0    number of steps for IOM
   NBLOCK =      1;   KBLOCK =      1    inner block; outer block 
   IBRION =     -1    ionic relax: 0-MD 1-quasi-New 2-CG
   NFREE  =      0    steps in history (QN), initial steepest desc. (CG)
   ISIF   =      3    stress and relaxation
   IWAVPR =     10    prediction:  0-non 1-charg 2-wave 3-comb
   ISYM   =      0    0-nonsym 1-usesym 2-fastsym
   LCORR  =      T    Harris-Foulkes like correction to forces

   POTIM  = 0.5000    time-step for ionic-motion
   TEIN   =    0.0    initial temperature
   TEBEG  =    0.0;   TEEND  =   0.0 temperature during run
   SMASS  =  -3.00    Nose mass-parameter (am)
   estimated Nose-frequenzy (Omega)   =  0.10E-29 period in steps =****** mass=  -0.449E-26a.u.
   SCALEE = 1.0000    scale energy and forces
   NPACO  =    256;   APACO  = 16.0  distance and # of slots for P.C.
   PSTRESS=    0.0 pullay stress

  Mass of Ions in am
   POMASS = 107.87 78.96
  Ionic Valenz
   ZVAL   =  11.00  6.00
  Atomic Wigner-Seitz radii
   RWIGS  =  -1.00 -1.00
  virtual crystal weights 
   VCA    =   1.00  1.00
   NELECT =    1344.0000    total number of electrons
   NUPDOWN=      -1.0000    fix difference up-down

 DOS related values:
   EMIN   =  10.00;   EMAX   =-10.00  energy-range for DOS
   EFERMI =   0.00
   ISMEAR =     0;   SIGMA  =   0.05  broadening in eV -4-tet -1-fermi 0-gaus

 Electronic relaxation 2 (details)
   IALGO  =     38    algorithm
   LDIAG  =      T    sub-space diagonalisation (order eigenvalues)
   LSUBROT=      F    optimize rotation matrix (better conditioning)
   TURBO    =      0    0=normal 1=particle mesh
   IRESTART =      0    0=no restart 2=restart with 2 vectors
   NREBOOT  =      0    no. of reboots
   NMIN     =      0    reboot dimension
   EREF     =   0.00    reference energy to select bands
   IMIX   =      4    mixing-type and parameters
     AMIX     =   0.40;   BMIX     =  1.00
     AMIX_MAG =   1.60;   BMIX_MAG =  1.00
     AMIN     =   0.10
     WC   =   100.;   INIMIX=   1;  MIXPRE=   1;  MAXMIX= -45

 Intra band minimization:
   WEIMIN = 0.0000     energy-eigenvalue tresh-hold
   EBREAK =  0.31E-11  absolut break condition
   DEPER  =   0.30     relativ break condition  

   TIME   =   0.40     timestep for ELM

  volume/ion in A,a.u.               =      19.49       131.52
  Fermi-wavevector in a.u.,A,eV,Ry     =   1.280824  2.420406 22.320485  1.640509
  Thomas-Fermi vector in A             =   2.413229
 
 Write flags
   LWAVE        =      F    write WAVECAR
   LDOWNSAMPLE  =      F    k-point downsampling of WAVECAR
   LCHARG       =      T    write CHGCAR
   LVTOT        =      F    write LOCPOT, total local potential
   LVHAR        =      F    write LOCPOT, Hartree potential only
   LELF         =      F    write electronic localiz. function (ELF)
   LORBIT       =      0    0 simple, 1 ext, 2 COOP (PROOUT), +10 PAW based schemes


 Dipole corrections
   LMONO  =      F    monopole corrections only (constant potential shift)
   LDIPOL =      F    correct potential (dipole corrections)
   IDIPOL =      0    1-x, 2-y, 3-z, 4-all directions 
   EPSILON=  1.0000000 bulk dielectric constant

 Exchange correlation treatment:
   GGA     =    PS    GGA type
   LEXCH   =    14    internal setting for exchange type
   VOSKOWN=      0    Vosko Wilk Nusair interpolation
   LHFCALC =     F    Hartree Fock is set to
   LHFONE  =     F    Hartree Fock one center treatment
   AEXX    =    0.0000 exact exchange contribution

 Linear response parameters
   LEPSILON=     F    determine dielectric tensor
   LRPA    =     F    only Hartree local field effects (RPA)
   LNABLA  =     F    use nabla operator in PAW spheres
   LVEL    =     F    velocity operator in full k-point grid
   LINTERFAST=   F  fast interpolation
   KINTER  =     0    interpolate to denser k-point grid
   CSHIFT  =0.1000    complex shift for real part using Kramers Kronig
   OMEGAMAX=  -1.0    maximum frequency
   DEG_THRESHOLD= 0.2000000E-02 threshold for treating states as degnerate
   RTIME   =   -0.100 relaxation time in fs
  (WPLASMAI=    0.000 imaginary part of plasma frequency in eV, 0.658/RTIME)
   DFIELD  = 0.0000000 0.0000000 0.0000000 field for delta impulse in time
 
 Orbital magnetization related:
   ORBITALMAG=     F  switch on orbital magnetization
   LCHIMAG   =     F  perturbation theory with respect to B field
   DQ        =  0.001000  dq finite difference perturbation B field
   LLRAUG    =     F  two centre corrections for induced B field



--------------------------------------------------------------------------------------------------------


 Static calculation
 charge density and potential will be updated during run
 non-spin polarized calculation
 Variant of blocked Davidson
 Davidson routine will perform the subspace rotation
 perform sub-space diagonalisation
    after iterative eigenvector-optimisation
 modified Broyden-mixing scheme, WC =      100.0
 initial mixing is a Kerker type mixing with AMIX =  0.4000 and BMIX =      1.0000
 Hartree-type preconditioning will be used
 using additional bands          134
 reciprocal scheme for non local part
 use partial core corrections
 calculate Harris-corrections to forces 
   (improved forces if not selfconsistent)
 use gradient corrections 
 use of overlap-Matrix (Vanderbilt PP)
 Gauss-broadening in eV      SIGMA  =   0.05


--------------------------------------------------------------------------------------------------------


  energy-cutoff  :      650.00
  volume of cell :     2806.44
      direct lattice vectors                 reciprocal lattice vectors
    14.010395980  0.001391380  0.000000000     0.071375569  0.000007787  0.000000000
    -0.001501960 13.766910920  0.000000000    -0.000007214  0.072637936  0.000000000
     0.000000000  0.000000000 14.550193860     0.000000000  0.000000000  0.068727607

  length of vectors
    14.010396049 13.766911002 14.550193860     0.071375570  0.072637936  0.068727607


 
 k-points in units of 2pi/SCALE and weight: # No comment                            
   0.00000000  0.00000000  0.00000000       0.125
   0.03568778  0.00000389  0.00000000       0.125
  -0.00000361  0.03631897  0.00000000       0.125
   0.03568418  0.03632286  0.00000000       0.125
   0.00000000  0.00000000  0.03436380       0.125
   0.03568778  0.00000389  0.03436380       0.125
  -0.00000361  0.03631897  0.03436380       0.125
   0.03568418  0.03632286  0.03436380       0.125
 
 k-points in reciprocal lattice and weights: # No comment                            
   0.00000000  0.00000000  0.00000000       0.125
   0.50000000 -0.00000000  0.00000000       0.125
   0.00000000  0.50000000  0.00000000       0.125
   0.50000000  0.50000000  0.00000000       0.125
   0.00000000  0.00000000  0.50000000       0.125
   0.50000000 -0.00000000  0.50000000       0.125
   0.00000000  0.50000000  0.50000000       0.125
   0.50000000  0.50000000  0.50000000       0.125
 
 position of ions in fractional coordinates (direct lattice) 
   0.42987898  0.17167077  0.33247735
   0.92987898  0.17167077  0.33247735
   0.42987898  0.67167077  0.33247735
   0.92987898  0.67167077  0.33247735
   0.42987898  0.17167077  0.66581068
   0.92987898  0.17167077  0.66581068
   0.42987898  0.67167077  0.66581068
   0.92987898  0.67167077  0.66581068
   0.42987898  0.17167077  0.99914401
   0.92987898  0.17167077  0.99914401
   0.42987898  0.67167077  0.99914401
   0.92987898  0.67167077  0.99914401
   0.07012102  0.32832923  0.33247735
   0.57012102  0.32832923  0.33247735
   0.07012102  0.82832923  0.33247735
   0.57012102  0.82832923  0.33247735
   0.07012102  0.32832923  0.66581068
   0.57012102  0.32832923  0.66581068
   0.07012102  0.82832923  0.66581068
   0.57012102  0.82832923  0.66581068
   0.07012102  0.32832923  0.99914401
   0.57012102  0.32832923  0.99914401
   0.07012102  0.82832923  0.99914401
   0.57012102  0.82832923  0.99914401
   0.32012053  0.42167367  0.05572347
   0.82012053  0.42167367  0.05641075
   0.32012053  0.92167367  0.05641075
   0.82012053  0.92167367  0.05641075
   0.32012053  0.42167367  0.38974408
   0.82012053  0.42167367  0.38974408
   0.32012053  0.92167367  0.38974408
   0.82012053  0.92167367  0.38974408
   0.32012053  0.42167367  0.72307741
   0.82012053  0.42167367  0.72307741
   0.32012053  0.92167367  0.72307741
   0.82012053  0.92167367  0.72307741
   0.17987947  0.07832633  0.05641075
   0.67987947  0.07832633  0.05641075
   0.17987947  0.57832633  0.05641075
   0.67987947  0.57832633  0.05641075
   0.17987947  0.07832633  0.38974408
   0.67987947  0.07832633  0.38974408
   0.17987947  0.57832633  0.38974408
   0.67987947  0.57832633  0.38974408
   0.17987947  0.07832633  0.72307741
   0.67987947  0.07832633  0.72307741
   0.17987947  0.57832633  0.72307741
   0.67987947  0.57832633  0.72307741
   0.17987776  0.32832369  0.16580856
   0.67987776  0.32832369  0.16580856
   0.17987776  0.82832369  0.16580856
   0.67987776  0.82832369  0.16580856
   0.17987776  0.32832369  0.49914189
   0.67987776  0.32832369  0.49914189
   0.17987776  0.82832369  0.49914189
   0.67987776  0.82832369  0.49914189
   0.17987776  0.32832369  0.83247522
   0.67987776  0.32832369  0.83247522
   0.17987776  0.82832369  0.83247522
   0.67987776  0.82832369  0.83247522
   0.32012224  0.17167631  0.16580856
   0.82012224  0.17167631  0.16580856
   0.32012224  0.67167631  0.16580856
   0.82012224  0.67167631  0.16580856
   0.32012224  0.17167631  0.49914189
   0.82012224  0.17167631  0.49914189
   0.32012224  0.67167631  0.49914189
   0.82012224  0.67167631  0.49914189
   0.32012224  0.17167631  0.83247522
   0.82012224  0.17167631  0.83247522
   0.32012224  0.67167631  0.83247522
   0.82012224  0.67167631  0.83247522
   0.42987656  0.42167494  0.22308000
   0.92987656  0.42167494  0.22308000
   0.42987656  0.92167494  0.22308000
   0.92987656  0.92167494  0.22308000
   0.42987656  0.42167494  0.55641333
   0.92987656  0.42167494  0.55641333
   0.42987656  0.92167494  0.55641333
   0.92987656  0.92167494  0.55641333
   0.42987656  0.42167494  0.88974666
   0.92987656  0.42167494  0.88974666
   0.42987656  0.92167494  0.88974666
   0.92987656  0.92167494  0.88974666
   0.07012344  0.07832506  0.22308000
   0.57012344  0.07832506  0.22308000
   0.07012344  0.57832506  0.22308000
   0.57012344  0.57832506  0.22308000
   0.07012344  0.07832506  0.55641333
   0.57012344  0.07832506  0.55641333
   0.07012344  0.57832506  0.55641333
   0.57012344  0.57832506  0.55641333
   0.07012344  0.07832506  0.88974666
   0.57012344  0.07832506  0.88974666
   0.07012344  0.57832506  0.88974666
   0.57012344  0.57832506  0.88974666
   0.00000000  0.00000000  0.05479365
   0.50000000  0.00000000  0.05479365
   0.00000000  0.50000000  0.05479365
   0.50000000  0.50000000  0.05479365
   0.00000000  0.00000000  0.38812698
   0.50000000  0.00000000  0.38812698
   0.00000000  0.50000000  0.38812698
   0.50000000  0.50000000  0.38812698
   0.00000000  0.00000000  0.72146032
   0.50000000  0.00000000  0.72146032
   0.00000000  0.50000000  0.72146032
   0.50000000  0.50000000  0.72146032
   0.25000000  0.00000000  0.22145206
   0.75000000  0.00000000  0.22145206
   0.25000000  0.50000000  0.22145206
   0.75000000  0.50000000  0.22145206
   0.25000000  0.00000000  0.55478539
   0.75000000  0.00000000  0.55478539
   0.25000000  0.50000000  0.55478539
   0.75000000  0.50000000  0.55478539
   0.25000000  0.00000000  0.88811873
   0.75000000  0.00000000  0.88811873
   0.25000000  0.50000000  0.88811873
   0.75000000  0.50000000  0.88811873
   0.00000000  0.25000000  0.16743769
   0.50000000  0.25000000  0.16743769
   0.00000000  0.75000000  0.16743769
   0.50000000  0.75000000  0.16743769
   0.00000000  0.25000000  0.50077102
   0.50000000  0.25000000  0.50077102
   0.00000000  0.75000000  0.50077102
   0.50000000  0.75000000  0.50077102
   0.00000000  0.25000000  0.83410435
   0.50000000  0.25000000  0.83410435
   0.00000000  0.75000000  0.83410435
   0.50000000  0.75000000  0.83410435
   0.25000000  0.25000000  0.00076332
   0.75000000  0.25000000  0.00076332
   0.25000000  0.75000000  0.00076332
   0.75000000  0.75000000  0.00076332
   0.25000000  0.25000000  0.33409665
   0.75000000  0.25000000  0.33409665
   0.25000000  0.75000000  0.33409665
   0.75000000  0.75000000  0.33409665
   0.25000000  0.25000000  0.66742999
   0.75000000  0.25000000  0.66742999
   0.25000000  0.75000000  0.66742999
   0.75000000  0.75000000  0.66742999
 
 position of ions in cartesian coordinates  (Angst):
   6.02251689  2.36397432  4.83760985
  13.02771488  2.36467001  4.83760985
   6.02176591  9.24742978  4.83760985
  13.02696390  9.24812547  4.83760985
   6.02251689  2.36397432  9.68767447
  13.02771488  2.36467001  9.68767447
   6.02176591  9.24742978  9.68767447
  13.02696390  9.24812547  9.68767447
   6.02251689  2.36397432 14.53773909
  13.02771488  2.36467001 14.53773909
   6.02176591  9.24742978 14.53773909
  13.02696390  9.24812547 14.53773909
   0.98193012  4.52017683  4.83760985
   7.98712811  4.52087252  4.83760985
   0.98117914 11.40363229  4.83760985
   7.98637713 11.40432798  4.83760985
   0.98193012  4.52017683  9.68767447
   7.98712811  4.52087252  9.68767447
   0.98117914 11.40363229  9.68767447
   7.98637713 11.40432798  9.68767447
   0.98193012  4.52017683 14.53773909
   7.98712811  4.52087252 14.53773909
   0.98117914 11.40363229 14.53773909
   7.98637713 11.40432798 14.53773909
   4.48438198  5.80558926  0.81078730
  11.48957997  5.80628495  0.82078730
   4.48363100 12.68904472  0.82078730
  11.48882899 12.68974041  0.82078730
   4.48438198  5.80558926  5.67085192
  11.48957997  5.80628495  5.67085192
   4.48363100 12.68904472  5.67085192
  11.48882899 12.68974041  5.67085192
   4.48438198  5.80558926 10.52091654
  11.48957997  5.80628495 10.52091654
   4.48363100 12.68904472 10.52091654
  11.48882899 12.68974041 10.52091654
   2.52006503  1.07856189  0.82078730
   9.52526302  1.07925758  0.82078730
   2.51931405  7.96201735  0.82078730
   9.52451204  7.96271304  0.82078730
   2.52006503  1.07856189  5.67085192
   9.52526302  1.07925758  5.67085192
   2.51931405  7.96201735  5.67085192
   9.52451204  7.96271304  5.67085192
   2.52006503  1.07856189 10.52091654
   9.52526302  1.07925758 10.52091654
   2.51931405  7.96201735 10.52091654
   9.52451204  7.96271304 10.52091654
   2.51966552  4.52025327  2.41254664
   9.52486351  4.52094896  2.41254664
   2.51891454 11.40370873  2.41254664
   9.52411253 11.40440442  2.41254664
   2.51966552  4.52025327  7.26261126
   9.52486351  4.52094896  7.26261126
   2.51891454 11.40370873  7.26261126
   9.52411253 11.40440442  7.26261126
   2.51966552  4.52025327 12.11267588
   9.52486351  4.52094896 12.11267588
   2.51891454 11.40370873 12.11267588
   9.52411253 11.40440442 12.11267588
   4.48478149  2.36389788  2.41254664
  11.48997948  2.36459357  2.41254664
   4.48403051  9.24735334  2.41254664
  11.48922850  9.24804903  2.41254664
   4.48478149  2.36389788  7.26261126
  11.48997948  2.36459357  7.26261126
   4.48403051  9.24735334  7.26261126
  11.48922850  9.24804903  7.26261126
   4.48478149  2.36389788 12.11267588
  11.48997948  2.36459357 12.11267588
   4.48403051  9.24735334 12.11267588
  11.48922850  9.24804903 12.11267588
   6.02210749  5.80575953  3.24585720
  13.02730548  5.80645522  3.24585720
   6.02135651 12.68921499  3.24585720
  13.02655450 12.68991068  3.24585720
   6.02210749  5.80575953  8.09592182
  13.02730548  5.80645522  8.09592182
   6.02135651 12.68921499  8.09592182
  13.02655450 12.68991068  8.09592182
   6.02210749  5.80575953 12.94598644
  13.02730548  5.80645522 12.94598644
   6.02135651 12.68921499 12.94598644
  13.02655450 12.68991068 12.94598644
   0.98233952  1.07839162  3.24585720
   7.98753751  1.07908731  3.24585720
   0.98158854  7.96184708  3.24585720
   7.98678653  7.96254277  3.24585720
   0.98233952  1.07839162  8.09592182
   7.98753751  1.07908731  8.09592182
   0.98158854  7.96184708  8.09592182
   7.98678653  7.96254277  8.09592182
   0.98233952  1.07839162 12.94598644
   7.98753751  1.07908731 12.94598644
   0.98158854  7.96184708 12.94598644
   7.98678653  7.96254277 12.94598644
   0.00000000  0.00000000  0.79725823
   7.00519799  0.00069569  0.79725823
  -0.00075098  6.88345546  0.79725823
   7.00444701  6.88415115  0.79725823
   0.00000000  0.00000000  5.64732285
   7.00519799  0.00069569  5.64732285
  -0.00075098  6.88345546  5.64732285
   7.00444701  6.88415115  5.64732285
   0.00000000  0.00000000 10.49738747
   7.00519799  0.00069569 10.49738747
  -0.00075098  6.88345546 10.49738747
   7.00444701  6.88415115 10.49738747
   3.50259900  0.00034785  3.22217040
  10.50779699  0.00104353  3.22217040
   3.50184802  6.88380331  3.22217040
  10.50704601  6.88449900  3.22217040
   3.50259900  0.00034785  8.07223502
  10.50779699  0.00104353  8.07223502
   3.50184802  6.88380331  8.07223502
  10.50704601  6.88449900  8.07223502
   3.50259900  0.00034785 12.92229964
  10.50779699  0.00104353 12.92229964
   3.50184802  6.88380331 12.92229964
  10.50704601  6.88449900 12.92229964
  -0.00037549  3.44172773  2.43625080
   7.00482250  3.44242342  2.43625080
  -0.00112647 10.32518319  2.43625080
   7.00407152 10.32587888  2.43625080
  -0.00037549  3.44172773  7.28631542
   7.00482250  3.44242342  7.28631542
  -0.00112647 10.32518319  7.28631542
   7.00407152 10.32587888  7.28631542
  -0.00037549  3.44172773 12.13638004
   7.00482250  3.44242342 12.13638004
  -0.00112647 10.32518319 12.13638004
   7.00407152 10.32587888 12.13638004
   3.50222350  3.44207558  0.01110645
  10.50742150  3.44277127  0.01110645
   3.50147253 10.32553104  0.01110645
  10.50667051 10.32622673  0.01110645
   3.50222350  3.44207558  4.86117107
  10.50742150  3.44277127  4.86117107
   3.50147253 10.32553104  4.86117107
  10.50667051 10.32622673  4.86117107
   3.50222350  3.44207558  9.71123569
  10.50742150  3.44277127  9.71123569
   3.50147253 10.32553104  9.71123569
  10.50667051 10.32622673  9.71123569
 


--------------------------------------------------------------------------------------------------------


 k-point  1 :   0.0000 0.0000 0.0000  plane waves:  105523
 k-point  2 :   0.5000-0.0000 0.0000  plane waves:  105722
 k-point  3 :   0.0000 0.5000 0.0000  plane waves:  105594
 k-point  4 :   0.5000 0.5000 0.0000  plane waves:  105596
 k-point  5 :   0.0000 0.0000 0.5000  plane waves:  105636
 k-point  6 :   0.5000-0.0000 0.5000  plane waves:  105608
 k-point  7 :   0.0000 0.5000 0.5000  plane waves:  105704
 k-point  8 :   0.5000 0.5000 0.5000  plane waves:  105564

 maximum and minimum number of plane-waves per node :     10604    10527

 maximum number of plane-waves:    105722
 maximum index in each direction: 
   IXMAX=   29   IYMAX=   28   IZMAX=   30
   IXMIN=  -29   IYMIN=  -29   IZMIN=  -30


 parallel 3D FFT for wavefunctions:
    minimum data exchange during FFTs selected (reduces bandwidth)
 parallel 3D FFT for charge:
    minimum data exchange during FFTs selected (reduces bandwidth)


 total amount of memory used by VASP MPI-rank0  1502421. kBytes
=======================================================================

   base      :      30000. kBytes
   nonl-proj :      48757. kBytes
   fftplans  :     217509. kBytes
   grid      :      89026. kBytes
   one-center:        233. kBytes
   wavefun   :    1116896. kBytes
 
     INWAV:  cpu time    0.0001: real time    0.0003
 Broyden mixing: mesh for mixing (old mesh)
   NGX = 59   NGY = 57   NGZ = 61
  (NGX  =240   NGY  =240   NGZ  =252)
  gives a total of 205143 points

 initial charge density was supplied:
 charge density of overlapping atoms calculated
 number of electron    1344.0000000 magnetization 
 keeping initial charge density in first step


--------------------------------------------------------------------------------------------------------


 Maximum index for augmentation-charges        24800 (set IRDMAX)


--------------------------------------------------------------------------------------------------------


 First call to EWALD:  gamma=   0.126
 Maximum number of real-space cells 3x 3x 3
 Maximum number of reciprocal cells 3x 3x 3

    FEWALD:  cpu time    0.0084: real time    0.0085


--------------------------------------- Iteration      1(   1)  ---------------------------------------


    POTLOK:  cpu time    0.9804: real time    0.9842
    SETDIJ:  cpu time    2.3983: real time    2.4039
     EDDAV:  cpu time  938.6553: real time  940.8837
       DOS:  cpu time    0.0076: real time    0.0076
    --------------------------------------------
      LOOP:  cpu time  942.0416: real time  944.2794

 eigenvalue-minimisations  : 12896
 total energy-change (2. order) : 0.1060506E+05  (-0.7422023E+05)
 number of electron    1344.0000000 magnetization 
 augmentation part     1344.0000000 magnetization 

 Free energy of the ion-electron system (eV)
  ---------------------------------------------------
  alpha Z        PSCENC =      4890.97834259
  Ewald energy   TEWEN  =    -98843.46031850
  -Hartree energ DENC   =    -25788.82932922
  -exchange      EXHF   =         0.00000000
  -V(xc)+E(xc)   XCENC  =      -889.86290421
  PAW double counting   =    106286.73805879  -101298.59693205
  entropy T*S    EENTRO =        -0.04292466
  eigenvalues    EBANDS =     14366.16131661
  atomic energy  EATOM  =    111881.97810035
  Solvation  Ediel_sol  =         0.00000000
  ---------------------------------------------------
  free energy    TOTEN  =     10605.06340970 eV

  energy without entropy =    10605.10633436  energy(sigma->0) =    10605.08487203


--------------------------------------------------------------------------------------------------------




--------------------------------------- Iteration      1(   2)  ---------------------------------------


     EDDAV:  cpu time  973.7283: real time  976.0312
       DOS:  cpu time    0.0069: real time    0.0069
    --------------------------------------------
      LOOP:  cpu time  973.7352: real time  976.0381

 eigenvalue-minimisations  : 13552
 total energy-change (2. order) :-0.1045359E+05  (-0.1002348E+05)
 number of electron    1344.0000000 magnetization 
 augmentation part     1344.0000000 magnetization 

 Free energy of the ion-electron system (eV)
  ---------------------------------------------------
  alpha Z        PSCENC =      4890.97834259
  Ewald energy   TEWEN  =    -98843.46031850
  -Hartree energ DENC   =    -25788.82932922
  -exchange      EXHF   =         0.00000000
  -V(xc)+E(xc)   XCENC  =      -889.86290421
  PAW double counting   =    106286.73805879  -101298.59693205
  entropy T*S    EENTRO =        -0.01319406
  eigenvalues    EBANDS =      3912.54221502
  atomic energy  EATOM  =    111881.97810035
  Solvation  Ediel_sol  =         0.00000000
  ---------------------------------------------------
  free energy    TOTEN  =       151.47403871 eV

  energy without entropy =      151.48723277  energy(sigma->0) =      151.48063574


--------------------------------------------------------------------------------------------------------




--------------------------------------- Iteration      1(   3)  ---------------------------------------


     EDDAV:  cpu time 1043.4517: real time 1045.9362
       DOS:  cpu time    0.0071: real time    0.0071
    --------------------------------------------
      LOOP:  cpu time 1043.4589: real time 1045.9433

 eigenvalue-minimisations  : 14408
 total energy-change (2. order) :-0.6693702E+03  (-0.6503611E+03)
 number of electron    1344.0000000 magnetization 
 augmentation part     1344.0000000 magnetization 

 Free energy of the ion-electron system (eV)
  ---------------------------------------------------
  alpha Z        PSCENC =      4890.97834259
  Ewald energy   TEWEN  =    -98843.46031850
  -Hartree energ DENC   =    -25788.82932922
  -exchange      EXHF   =         0.00000000
  -V(xc)+E(xc)   XCENC  =      -889.86290421
  PAW double counting   =    106286.73805879  -101298.59693205
  entropy T*S    EENTRO =        -0.00611707
  eigenvalues    EBANDS =      3243.16489977
  atomic energy  EATOM  =    111881.97810035
  Solvation  Ediel_sol  =         0.00000000
  ---------------------------------------------------
  free energy    TOTEN  =      -517.89619955 eV

  energy without entropy =     -517.89008248  energy(sigma->0) =     -517.89314101


--------------------------------------------------------------------------------------------------------




--------------------------------------- Iteration      1(   4)  ---------------------------------------


     EDDAV:  cpu time 1019.0977: real time 1021.5517
       DOS:  cpu time    0.0081: real time    0.0087
    --------------------------------------------
      LOOP:  cpu time 1019.1058: real time 1021.5603

 eigenvalue-minimisations  : 13976
 total energy-change (2. order) :-0.1751890E+02  (-0.1730127E+02)
 number of electron    1344.0000000 magnetization 
 augmentation part     1344.0000000 magnetization 

 Free energy of the ion-electron system (eV)
  ---------------------------------------------------
  alpha Z        PSCENC =      4890.97834259
  Ewald energy   TEWEN  =    -98843.46031850
  -Hartree energ DENC   =    -25788.82932922
  -exchange      EXHF   =         0.00000000
  -V(xc)+E(xc)   XCENC  =      -889.86290421
  PAW double counting   =    106286.73805879  -101298.59693205
  entropy T*S    EENTRO =        -0.00545270
  eigenvalues    EBANDS =      3225.64533952
  atomic energy  EATOM  =    111881.97810035
  Solvation  Ediel_sol  =         0.00000000
  ---------------------------------------------------
  free energy    TOTEN  =      -535.41509542 eV

  energy without entropy =     -535.40964273  energy(sigma->0) =     -535.41236907


--------------------------------------------------------------------------------------------------------




--------------------------------------- Iteration      1(   5)  ---------------------------------------


     EDDAV:  cpu time 1014.7112: real time 1017.1701
       DOS:  cpu time    0.0074: real time    0.0074
    CHARGE:  cpu time   14.6789: real time   14.7142
    MIXING:  cpu time    0.0360: real time    0.0360
    --------------------------------------------
      LOOP:  cpu time 1029.4335: real time 1031.9277

 eigenvalue-minimisations  : 14200
 total energy-change (2. order) :-0.2553360E+00  (-0.2543969E+00)
 number of electron    1344.0000022 magnetization 
 augmentation part      434.5281208 magnetization 

 Broyden mixing:
  rms(total) = 0.57806E+01    rms(broyden)= 0.57806E+01
  rms(prec ) = 0.61446E+01
  weight for this iteration     100.00

 Free energy of the ion-electron system (eV)
  ---------------------------------------------------
  alpha Z        PSCENC =      4890.97834259
  Ewald energy   TEWEN  =    -98843.46031850
  -Hartree energ DENC   =    -25788.82932922
  -exchange      EXHF   =         0.00000000
  -V(xc)+E(xc)   XCENC  =      -889.86290421
  PAW double counting   =    106286.73805879  -101298.59693205
  entropy T*S    EENTRO =        -0.00546081
  eigenvalues    EBANDS =      3225.39001168
  atomic energy  EATOM  =    111881.97810035
  Solvation  Ediel_sol  =         0.00000000
  ---------------------------------------------------
  free energy    TOTEN  =      -535.67043138 eV

  energy without entropy =     -535.66497057  energy(sigma->0) =     -535.66770097


--------------------------------------------------------------------------------------------------------




--------------------------------------- Iteration      1(   6)  ---------------------------------------


    POTLOK:  cpu time    1.0332: real time    1.0358
    SETDIJ:  cpu time    2.4104: real time    2.4161
     EDDAV:  cpu time  989.6052: real time  991.9645
       DOS:  cpu time    0.0087: real time    0.0087
    CHARGE:  cpu time   14.2031: real time   14.2367
    MIXING:  cpu time    0.0358: real time    0.0359
    --------------------------------------------
      LOOP:  cpu time 1007.2963: real time 1009.6977

 eigenvalue-minimisations  : 13624
 total energy-change (2. order) : 0.3068728E+02  (-0.1278227E+02)
 number of electron    1344.0000023 magnetization 
 augmentation part      453.9156787 magnetization 

 Broyden mixing:
  rms(total) = 0.43957E+01    rms(broyden)= 0.43957E+01
  rms(prec ) = 0.44033E+01
  weight for this iteration     100.00

 eigenvalues of (default mixing * dielectric matrix)
  average eigenvalue GAMMA=   1.1412
  1.1412

 Free energy of the ion-electron system (eV)
  ---------------------------------------------------
  alpha Z        PSCENC =      4890.97834259
  Ewald energy   TEWEN  =    -98843.46031850
  -Hartree energ DENC   =    -24779.40870565
  -exchange      EXHF   =         0.00000000
  -V(xc)+E(xc)   XCENC  =      -919.37373997
  PAW double counting   =    111560.83923763  -106627.92658557
  entropy T*S    EENTRO =        -0.01547907
  eigenvalues    EBANDS =      2331.40599394
  atomic energy  EATOM  =    111881.97810035
  Solvation  Ediel_sol  =         0.00000000
  ---------------------------------------------------
  free energy    TOTEN  =      -504.98315425 eV

  energy without entropy =     -504.96767519  energy(sigma->0) =     -504.97541472


--------------------------------------------------------------------------------------------------------




--------------------------------------- Iteration      1(   7)  ---------------------------------------


    POTLOK:  cpu time    1.0461: real time    1.0487
    SETDIJ:  cpu time    2.4008: real time    2.4064
     EDDAV:  cpu time  979.2685: real time  981.6119
       DOS:  cpu time    0.0084: real time    0.0084
    CHARGE:  cpu time   14.1416: real time   14.1751
    MIXING:  cpu time    0.0327: real time    0.0327
    --------------------------------------------
      LOOP:  cpu time  996.8981: real time  999.2833

 eigenvalue-minimisations  : 13520
 total energy-change (2. order) :-0.6744438E+00  (-0.1703209E+01)
 number of electron    1344.0000023 magnetization 
 augmentation part      454.6476163 magnetization 

 Broyden mixing:
  rms(total) = 0.22963E+01    rms(broyden)= 0.22963E+01
  rms(prec ) = 0.23048E+01
  weight for this iteration     100.00

 eigenvalues of (default mixing * dielectric matrix)
  average eigenvalue GAMMA=   1.6033
  0.9833  2.2233

 Free energy of the ion-electron system (eV)
  ---------------------------------------------------
  alpha Z        PSCENC =      4890.97834259
  Ewald energy   TEWEN  =    -98843.46031850
  -Hartree energ DENC   =    -24746.22286446
  -exchange      EXHF   =         0.00000000
  -V(xc)+E(xc)   XCENC  =      -919.75335775
  PAW double counting   =    115735.30570687  -110859.97753722
  entropy T*S    EENTRO =        -0.01575253
  eigenvalues    EBANDS =      2355.51008258
  atomic energy  EATOM  =    111881.97810035
  Solvation  Ediel_sol  =         0.00000000
  ---------------------------------------------------
  free energy    TOTEN  =      -505.65759808 eV

  energy without entropy =     -505.64184555  energy(sigma->0) =     -505.64972181


--------------------------------------------------------------------------------------------------------




--------------------------------------- Iteration      1(   8)  ---------------------------------------


    POTLOK:  cpu time    1.0197: real time    1.0223
    SETDIJ:  cpu time    2.4228: real time    2.4285
     EDDAV:  cpu time  992.9515: real time  995.3081
       DOS:  cpu time    0.0080: real time    0.0084
    CHARGE:  cpu time   14.0746: real time   14.1077
    MIXING:  cpu time    0.0368: real time    0.0369
    --------------------------------------------
      LOOP:  cpu time 1010.5134: real time 1012.9120

 eigenvalue-minimisations  : 13856
 total energy-change (2. order) : 0.4756352E+00  (-0.1222294E+00)
 number of electron    1344.0000023 magnetization 
 augmentation part      453.3480703 magnetization 

 Broyden mixing:
  rms(total) = 0.20642E+00    rms(broyden)= 0.20642E+00
  rms(prec ) = 0.22602E+00
  weight for this iteration     100.00

 eigenvalues of (default mixing * dielectric matrix)
  average eigenvalue GAMMA=   1.4618
  2.3924  0.9965  0.9965

 Free energy of the ion-electron system (eV)
  ---------------------------------------------------
  alpha Z        PSCENC =      4890.97834259
  Ewald energy   TEWEN  =    -98843.46031850
  -Hartree energ DENC   =    -24698.28673748
  -exchange      EXHF   =         0.00000000
  -V(xc)+E(xc)   XCENC  =      -921.39525647
  PAW double counting   =    121617.89421676  -116804.16115057
  entropy T*S    EENTRO =        -0.01460503
  eigenvalues    EBANDS =      2371.28544549
  atomic energy  EATOM  =    111881.97810035
  Solvation  Ediel_sol  =         0.00000000
  ---------------------------------------------------
  free energy    TOTEN  =      -505.18196287 eV

  energy without entropy =     -505.16735784  energy(sigma->0) =     -505.17466035


--------------------------------------------------------------------------------------------------------




--------------------------------------- Iteration      1(   9)  ---------------------------------------


    POTLOK:  cpu time    1.0282: real time    1.0313
    SETDIJ:  cpu time    2.4254: real time    2.4310
     EDDAV:  cpu time  978.9252: real time  981.2441
       DOS:  cpu time    0.0075: real time    0.0075
    CHARGE:  cpu time   14.8147: real time   14.8497
    MIXING:  cpu time    0.0341: real time    0.0342
    --------------------------------------------
      LOOP:  cpu time  997.2352: real time  999.5978

 eigenvalue-minimisations  : 13600
 total energy-change (2. order) : 0.5569293E-01  (-0.3133182E-01)
 number of electron    1344.0000023 magnetization 
 augmentation part      454.0090501 magnetization 

 Broyden mixing:
  rms(total) = 0.68524E-01    rms(broyden)= 0.68524E-01
  rms(prec ) = 0.70778E-01
  weight for this iteration     100.00

 eigenvalues of (default mixing * dielectric matrix)
  average eigenvalue GAMMA=   1.5149
  2.5092  0.9958  0.9958  1.5587

 Free energy of the ion-electron system (eV)
  ---------------------------------------------------
  alpha Z        PSCENC =      4890.97834259
  Ewald energy   TEWEN  =    -98843.46031850
  -Hartree energ DENC   =    -24655.48767350
  -exchange      EXHF   =         0.00000000
  -V(xc)+E(xc)   XCENC  =      -922.49737732
  PAW double counting   =    122238.10298468  -117429.74018293
  entropy T*S    EENTRO =        -0.01521698
  eigenvalues    EBANDS =      2335.01507168
  atomic energy  EATOM  =    111881.97810035
  Solvation  Ediel_sol  =         0.00000000
  ---------------------------------------------------
  free energy    TOTEN  =      -505.12626994 eV

  energy without entropy =     -505.11105296  energy(sigma->0) =     -505.11866145


--------------------------------------------------------------------------------------------------------




--------------------------------------- Iteration      1(  10)  ---------------------------------------


    POTLOK:  cpu time    1.0425: real time    1.0450
    SETDIJ:  cpu time    2.4061: real time    2.4118
     EDDAV:  cpu time  981.9543: real time  984.3103
       DOS:  cpu time    0.0077: real time    0.0077
    CHARGE:  cpu time   15.1595: real time   15.2125
    MIXING:  cpu time    0.0381: real time    0.0382
    --------------------------------------------
      LOOP:  cpu time 1000.6082: real time 1003.0255

 eigenvalue-minimisations  : 13696
 total energy-change (2. order) :-0.2130680E-02  (-0.4779864E-02)
 number of electron    1344.0000023 magnetization 
 augmentation part      454.1198423 magnetization 

 Broyden mixing:
  rms(total) = 0.29852E-01    rms(broyden)= 0.29852E-01
  rms(prec ) = 0.30779E-01
  weight for this iteration     100.00

 eigenvalues of (default mixing * dielectric matrix)
  average eigenvalue GAMMA=   1.6229
  2.5302  2.5302  1.0039  1.0039  1.0462

 Free energy of the ion-electron system (eV)
  ---------------------------------------------------
  alpha Z        PSCENC =      4890.97834259
  Ewald energy   TEWEN  =    -98843.46031850
  -Hartree energ DENC   =    -24655.57606961
  -exchange      EXHF   =         0.00000000
  -V(xc)+E(xc)   XCENC  =      -922.45578989
  PAW double counting   =    122273.43881179  -117466.11641169
  entropy T*S    EENTRO =        -0.01527489
  eigenvalues    EBANDS =      2336.10020924
  atomic energy  EATOM  =    111881.97810035
  Solvation  Ediel_sol  =         0.00000000
  ---------------------------------------------------
  free energy    TOTEN  =      -505.12840062 eV

  energy without entropy =     -505.11312573  energy(sigma->0) =     -505.12076317


--------------------------------------------------------------------------------------------------------




--------------------------------------- Iteration      1(  11)  ---------------------------------------


    POTLOK:  cpu time    1.1167: real time    1.1197
    SETDIJ:  cpu time    2.6801: real time    2.6864
     EDDAV:  cpu time 1012.6363: real time 1015.0582
       DOS:  cpu time    0.0082: real time    0.0082
    CHARGE:  cpu time   15.2200: real time   15.2561
    MIXING:  cpu time    0.0401: real time    0.0402
    --------------------------------------------
      LOOP:  cpu time 1031.7013: real time 1034.1687

 eigenvalue-minimisations  : 13872
 total energy-change (2. order) : 0.1259052E-03  (-0.3021576E-03)
 number of electron    1344.0000023 magnetization 
 augmentation part      454.0471889 magnetization 

 Broyden mixing:
  rms(total) = 0.78805E-02    rms(broyden)= 0.78803E-02
  rms(prec ) = 0.84784E-02
  weight for this iteration     100.00

 eigenvalues of (default mixing * dielectric matrix)
  average eigenvalue GAMMA=   1.5330
  2.4888  2.4333  1.2421  0.9872  1.0233  1.0233

 Free energy of the ion-electron system (eV)
  ---------------------------------------------------
  alpha Z        PSCENC =      4890.97834259
  Ewald energy   TEWEN  =    -98843.46031850
  -Hartree energ DENC   =    -24659.49488812
  -exchange      EXHF   =         0.00000000
  -V(xc)+E(xc)   XCENC  =      -922.38910341
  PAW double counting   =    122219.27510358  -117411.38548409
  entropy T*S    EENTRO =        -0.01520661
  eigenvalues    EBANDS =      2339.38517950
  atomic energy  EATOM  =    111881.97810035
  Solvation  Ediel_sol  =         0.00000000
  ---------------------------------------------------
  free energy    TOTEN  =      -505.12827471 eV

  energy without entropy =     -505.11306811  energy(sigma->0) =     -505.12067141


--------------------------------------------------------------------------------------------------------




--------------------------------------- Iteration      1(  12)  ---------------------------------------


    POTLOK:  cpu time    1.0410: real time    1.0435
    SETDIJ:  cpu time    2.4004: real time    2.4059
     EDDAV:  cpu time  987.1248: real time  989.4864
       DOS:  cpu time    0.0076: real time    0.0083
    CHARGE:  cpu time   16.5553: real time   16.5958
    MIXING:  cpu time    0.0428: real time    0.0429
    --------------------------------------------
      LOOP:  cpu time 1007.1720: real time 1009.5828

 eigenvalue-minimisations  : 13736
 total energy-change (2. order) : 0.4211529E-04  (-0.6245410E-04)
 number of electron    1344.0000023 magnetization 
 augmentation part      454.0713343 magnetization 

 Broyden mixing:
  rms(total) = 0.20364E-02    rms(broyden)= 0.20358E-02
  rms(prec ) = 0.21711E-02
  weight for this iteration     100.00

 eigenvalues of (default mixing * dielectric matrix)
  average eigenvalue GAMMA=   1.5104
  2.7295  2.3940  1.3760  1.0085  1.0085  1.1610  0.8953

 Free energy of the ion-electron system (eV)
  ---------------------------------------------------
  alpha Z        PSCENC =      4890.97834259
  Ewald energy   TEWEN  =    -98843.46031850
  -Hartree energ DENC   =    -24657.38342157
  -exchange      EXHF   =         0.00000000
  -V(xc)+E(xc)   XCENC  =      -922.45510357
  PAW double counting   =    122249.31226638  -117441.59414452
  entropy T*S    EENTRO =        -0.01522684
  eigenvalues    EBANDS =      2337.51127310
  atomic energy  EATOM  =    111881.97810035
  Solvation  Ediel_sol  =         0.00000000
  ---------------------------------------------------
  free energy    TOTEN  =      -505.12823260 eV

  energy without entropy =     -505.11300576  energy(sigma->0) =     -505.12061918


--------------------------------------------------------------------------------------------------------




--------------------------------------- Iteration      1(  13)  ---------------------------------------


    POTLOK:  cpu time    1.1834: real time    1.1887
    SETDIJ:  cpu time    2.7200: real time    2.7244
     EDDAV:  cpu time 1036.2543: real time 1038.7087
       DOS:  cpu time    0.0091: real time    0.0091
    CHARGE:  cpu time   14.6100: real time   14.6442
    MIXING:  cpu time    0.0408: real time    0.0408
    --------------------------------------------
      LOOP:  cpu time 1054.8175: real time 1057.3160

 eigenvalue-minimisations  : 14680
 total energy-change (2. order) :-0.4390313E-07  (-0.1452227E-05)
 number of electron    1344.0000023 magnetization 
 augmentation part      454.0699040 magnetization 

 Broyden mixing:
  rms(total) = 0.83220E-03    rms(broyden)= 0.83058E-03
  rms(prec ) = 0.89173E-03
  weight for this iteration     100.00

 eigenvalues of (default mixing * dielectric matrix)
  average eigenvalue GAMMA=   1.5020
  2.7874  2.3938  1.6498  1.3230  0.9869  0.9869  0.9443  0.9443

 Free energy of the ion-electron system (eV)
  ---------------------------------------------------
  alpha Z        PSCENC =      4890.97834259
  Ewald energy   TEWEN  =    -98843.46031850
  -Hartree energ DENC   =    -24657.46206787
  -exchange      EXHF   =         0.00000000
  -V(xc)+E(xc)   XCENC  =      -922.45595233
  PAW double counting   =    122252.42729862  -117444.71381373
  entropy T*S    EENTRO =        -0.01522395
  eigenvalues    EBANDS =      2337.59540219
  atomic energy  EATOM  =    111881.97810035
  Solvation  Ediel_sol  =         0.00000000
  ---------------------------------------------------
  free energy    TOTEN  =      -505.12823264 eV

  energy without entropy =     -505.11300869  energy(sigma->0) =     -505.12062067


--------------------------------------------------------------------------------------------------------




--------------------------------------- Iteration      1(  14)  ---------------------------------------


    POTLOK:  cpu time    1.0350: real time    1.0375
    SETDIJ:  cpu time    2.3550: real time    2.3605
     EDDAV:  cpu time  974.1195: real time  976.4469
       DOS:  cpu time    0.0079: real time    0.0079
    CHARGE:  cpu time   14.7749: real time   14.8093
    MIXING:  cpu time    0.0393: real time    0.0393
    --------------------------------------------
      LOOP:  cpu time  992.3316: real time  994.7014

 eigenvalue-minimisations  : 13680
 total energy-change (2. order) : 0.1120410E-05  (-0.3475610E-06)
 number of electron    1344.0000023 magnetization 
 augmentation part      454.0674262 magnetization 

 Broyden mixing:
  rms(total) = 0.33201E-03    rms(broyden)= 0.32794E-03
  rms(prec ) = 0.33770E-03
  weight for this iteration     100.00

 eigenvalues of (default mixing * dielectric matrix)
  average eigenvalue GAMMA=   1.5296
  2.7633  2.4038  2.3738  1.1422  1.1422  0.9877  0.9877  0.9830  0.9830

 Free energy of the ion-electron system (eV)
  ---------------------------------------------------
  alpha Z        PSCENC =      4890.97834259
  Ewald energy   TEWEN  =    -98843.46031850
  -Hartree energ DENC   =    -24657.60710523
  -exchange      EXHF   =         0.00000000
  -V(xc)+E(xc)   XCENC  =      -922.45114297
  PAW double counting   =    122252.68367079  -117444.95137391
  entropy T*S    EENTRO =        -0.01522284
  eigenvalues    EBANDS =      2337.71681820
  atomic energy  EATOM  =    111881.97810035
  Solvation  Ediel_sol  =         0.00000000
  ---------------------------------------------------
  free energy    TOTEN  =      -505.12823152 eV

  energy without entropy =     -505.11300869  energy(sigma->0) =     -505.12062010


--------------------------------------------------------------------------------------------------------




--------------------------------------- Iteration      1(  15)  ---------------------------------------


    POTLOK:  cpu time    1.0322: real time    1.0348
    SETDIJ:  cpu time    2.3680: real time    2.3735
     EDDAV:  cpu time  996.6310: real time  998.9891
       DOS:  cpu time    0.0075: real time    0.0075
    CHARGE:  cpu time   14.5087: real time   14.5428
    MIXING:  cpu time    0.0422: real time    0.0423
    --------------------------------------------
      LOOP:  cpu time 1014.5895: real time 1016.9901

 eigenvalue-minimisations  : 14120
 total energy-change (2. order) : 0.1504028E-05  (-0.2025852E-07)
 number of electron    1344.0000023 magnetization 
 augmentation part      454.0671246 magnetization 

 Broyden mixing:
  rms(total) = 0.12248E-03    rms(broyden)= 0.11096E-03
  rms(prec ) = 0.11847E-03
  weight for this iteration     100.00

 eigenvalues of (default mixing * dielectric matrix)
  average eigenvalue GAMMA=   1.5132
  2.7296  2.6156  2.3315  1.3239  1.3239  0.9870  0.9870  0.9736  0.9736  0.8865

 Free energy of the ion-electron system (eV)
  ---------------------------------------------------
  alpha Z        PSCENC =      4890.97834259
  Ewald energy   TEWEN  =    -98843.46031850
  -Hartree energ DENC   =    -24657.64891365
  -exchange      EXHF   =         0.00000000
  -V(xc)+E(xc)   XCENC  =      -922.44980456
  PAW double counting   =    122252.67298374  -117444.92759010
  entropy T*S    EENTRO =        -0.01522263
  eigenvalues    EBANDS =      2337.74419275
  atomic energy  EATOM  =    111881.97810035
  Solvation  Ediel_sol  =         0.00000000
  ---------------------------------------------------
  free energy    TOTEN  =      -505.12823002 eV

  energy without entropy =     -505.11300739  energy(sigma->0) =     -505.12061871


--------------------------------------------------------------------------------------------------------




--------------------------------------- Iteration      1(  16)  ---------------------------------------


    POTLOK:  cpu time    1.0586: real time    1.0614
    SETDIJ:  cpu time    2.4265: real time    2.4322
     EDDAV:  cpu time  901.3915: real time  903.5221
       DOS:  cpu time    0.0078: real time    0.0084
    CHARGE:  cpu time   14.1042: real time   14.1374
    MIXING:  cpu time    0.0389: real time    0.0389
    --------------------------------------------
      LOOP:  cpu time  919.0274: real time  921.2005

 eigenvalue-minimisations  : 12304
 total energy-change (2. order) : 0.1392618E-07  (-0.5627982E-08)
 number of electron    1344.0000023 magnetization 
 augmentation part      454.0667941 magnetization 

 Broyden mixing:
[...]
   -.341E-01 0.897E-02 -.314E+02   0.342E-01 -.920E-02 0.328E+02   -.844E-03 -.341E-04 -.136E+01   -.390E-07 -.325E-06 -.340E-06
   0.577E-01 0.247E-01 -.314E+02   -.579E-01 -.249E-01 0.327E+02   0.507E-03 0.462E-03 -.136E+01   0.460E-07 0.135E-06 -.443E-06
   0.754E-02 0.540E-02 -.314E+02   -.753E-02 -.544E-02 0.328E+02   0.122E-04 0.408E-04 -.136E+01   0.111E-06 0.465E-06 -.374E-06
   -.877E-02 0.105E-01 -.314E+02   0.888E-02 -.105E-01 0.328E+02   -.150E-03 0.129E-04 -.136E+01   -.169E-06 0.118E-06 -.625E-06
   0.331E-01 -.873E-02 -.314E+02   -.336E-01 0.904E-02 0.328E+02   0.109E-02 -.143E-03 -.136E+01   -.116E-06 -.488E-06 -.557E-06
   -.562E-01 -.242E-01 -.314E+02   0.564E-01 0.243E-01 0.327E+02   -.620E-03 -.364E-03 -.136E+01   0.125E-06 -.276E-06 -.772E-06
   -.681E-02 -.247E-01 -.315E+02   0.685E-02 0.247E-01 0.328E+02   -.119E-03 0.104E-03 -.136E+01   -.211E-06 0.312E-06 -.549E-07
   0.397E-02 -.414E-02 -.315E+02   -.398E-02 0.405E-02 0.328E+02   -.429E-04 0.101E-03 -.136E+01   0.409E-06 -.228E-07 0.480E-07
   -.373E+00 0.406E+00 -.309E+02   0.381E+00 -.418E+00 0.323E+02   -.477E-02 0.575E-02 -.135E+01   0.537E-06 -.443E-06 0.128E-06
   0.205E-01 0.642E-02 -.315E+02   -.203E-01 -.640E-02 0.328E+02   -.427E-03 0.733E-04 -.136E+01   -.534E-06 -.101E-06 0.253E-06
   -.778E-04 -.513E-04 -.314E+02   0.360E-04 0.103E-03 0.328E+02   0.290E-04 -.966E-04 -.136E+01   -.189E-06 0.463E-06 -.761E-06
   0.226E-05 -.125E-04 -.314E+02   -.276E-04 0.283E-04 0.328E+02   0.831E-05 0.265E-05 -.136E+01   0.271E-06 0.973E-07 -.808E-06
   -.956E-04 0.181E-03 -.314E+02   0.174E-03 -.190E-03 0.327E+02   -.895E-04 0.200E-04 -.136E+01   0.354E-06 -.400E-06 -.887E-06
   0.131E-03 0.264E-04 -.314E+02   -.893E-04 -.353E-04 0.328E+02   -.447E-04 0.269E-04 -.136E+01   -.406E-06 -.154E-06 -.861E-06
   0.694E-02 0.245E-01 -.315E+02   -.688E-02 -.247E-01 0.328E+02   -.148E-03 0.428E-03 -.136E+01   -.337E-06 0.280E-06 0.160E-06
   -.403E-02 0.402E-02 -.315E+02   0.401E-02 -.407E-02 0.328E+02   0.422E-04 0.642E-04 -.136E+01   0.449E-06 -.250E-06 0.174E-06
   0.357E+00 -.394E+00 -.310E+02   -.365E+00 0.401E+00 0.323E+02   0.402E-02 -.356E-02 -.135E+01   0.232E-06 -.214E-06 0.152E-06
   -.203E-01 -.653E-02 -.315E+02   0.204E-01 0.643E-02 0.328E+02   0.268E-04 0.335E-04 -.136E+01   -.258E-06 0.250E-06 -.429E-07
   -.438E-01 -.243E-01 0.314E+02   0.439E-01 0.244E-01 -.328E+02   -.274E-03 -.291E-03 0.136E+01   0.216E-06 -.385E-06 0.617E-06
   0.142E+00 -.133E+00 0.314E+02   -.142E+00 0.133E+00 -.328E+02   -.506E-03 0.366E-03 0.136E+01   -.311E-06 0.449E-06 0.759E-06
   -.143E-01 0.140E-01 0.314E+02   0.142E-01 -.139E-01 -.328E+02   -.224E-04 -.269E-04 0.136E+01   0.839E-09 0.584E-06 0.444E-06
   0.238E-01 0.397E-01 0.314E+02   -.238E-01 -.395E-01 -.328E+02   0.164E-03 -.229E-03 0.136E+01   0.620E-07 -.352E-06 0.615E-06
   -.786E-02 -.472E-02 0.315E+02   0.781E-02 0.469E-02 -.329E+02   0.928E-04 -.929E-05 0.136E+01   0.445E-07 -.235E-06 -.244E-06
   0.103E-01 -.976E-02 0.315E+02   -.105E-01 0.978E-02 -.329E+02   0.192E-03 -.466E-04 0.136E+01   -.140E-06 0.620E-06 -.326E-06
   -.380E-02 0.381E-02 0.315E+02   0.398E-02 -.383E-02 -.328E+02   -.152E-03 0.421E-04 0.136E+01   -.231E-06 0.212E-06 -.324E-06
   0.481E-02 0.730E-02 0.315E+02   -.481E-02 -.724E-02 -.329E+02   0.322E-05 -.931E-05 0.136E+01   0.165E-06 -.505E-06 -.652E-06
   0.445E-01 0.253E-01 0.315E+02   -.444E-01 -.253E-01 -.328E+02   -.134E-03 0.541E-04 0.136E+01   0.301E-06 -.265E-06 0.298E-06
   -.939E-01 0.878E-01 0.315E+02   0.938E-01 -.878E-01 -.329E+02   0.272E-03 -.471E-03 0.136E+01   -.350E-06 0.412E-06 0.325E-06
   0.174E-01 -.169E-01 0.315E+02   -.173E-01 0.168E-01 -.328E+02   -.623E-04 0.230E-04 0.136E+01   -.124E-06 0.283E-06 0.581E-06
   -.252E-01 -.407E-01 0.315E+02   0.252E-01 0.406E-01 -.328E+02   -.404E-04 0.174E-03 0.136E+01   0.896E-07 -.284E-06 0.623E-06
   0.159E+00 0.383E+00 0.311E+02   -.162E+00 -.389E+00 -.325E+02   0.216E-03 0.120E-02 0.136E+01   -.165E-06 -.621E-07 0.638E-06
   -.707E-02 0.478E-02 0.314E+02   0.723E-02 -.488E-02 -.328E+02   -.266E-03 0.174E-03 0.136E+01   0.202E-06 0.322E-07 0.754E-06
   0.957E-02 -.422E-01 0.314E+02   -.975E-02 0.424E-01 -.327E+02   0.112E-03 -.321E-03 0.136E+01   0.169E-06 0.965E-07 0.830E-06
   -.289E-02 -.371E-02 0.314E+02   0.291E-02 0.366E-02 -.328E+02   -.417E-04 0.576E-04 0.136E+01   -.181E-06 0.111E-07 0.681E-06
   -.431E-01 -.102E+00 0.316E+02   0.429E-01 0.102E+00 -.329E+02   0.275E-03 -.424E-03 0.136E+01   -.651E-08 0.106E-06 -.131E-06
   0.126E-01 -.981E-02 0.315E+02   -.126E-01 0.977E-02 -.328E+02   0.496E-04 0.460E-04 0.136E+01   0.144E-06 0.297E-06 0.254E-06
   -.120E-01 0.472E-01 0.315E+02   0.118E-01 -.478E-01 -.328E+02   0.545E-03 0.139E-02 0.136E+01   0.383E-06 -.118E-06 -.921E-07
   0.603E-02 0.810E-02 0.315E+02   -.606E-02 -.813E-02 -.328E+02   0.590E-04 0.277E-04 0.136E+01   -.329E-06 -.204E-06 0.134E-06
   0.134E-01 0.317E-01 0.315E+02   -.134E-01 -.316E-01 -.329E+02   -.487E-04 0.596E-04 0.136E+01   -.160E-06 -.789E-07 -.414E-07
   -.630E-02 0.528E-02 0.315E+02   0.639E-02 -.535E-02 -.328E+02   -.698E-04 0.696E-04 0.136E+01   0.206E-06 0.263E-06 -.366E-06
   0.519E-02 -.204E-01 0.315E+02   -.530E-02 0.206E-01 -.329E+02   0.148E-03 -.325E-03 0.136E+01   0.869E-07 0.456E-07 -.986E-07
   -.343E-02 -.460E-02 0.315E+02   0.335E-02 0.465E-02 -.328E+02   0.773E-04 -.373E-04 0.136E+01   -.712E-07 -.209E-06 -.245E-06
 -----------------------------------------------------------------------------------------------
   0.213E-02 -.227E-01 -.688E-01   -.550E-12 -.561E-12 0.952E-12   -.214E-02 0.227E-01 0.688E-01   0.828E-07 -.131E-06 0.776E-06
 
 
 POSITION                                       TOTAL-FORCE (eV/Angst)
 -----------------------------------------------------------------------------------
      6.02252      2.36397      4.83761        -0.000031      0.000072     -0.000014
     13.02771      2.36467      4.83761        -0.000031      0.000067     -0.000054
      6.02177      9.24743      4.83761        -0.000085     -0.000010     -0.000014
     13.02696      9.24813      4.83761         0.000020     -0.000022     -0.000054
      6.02252      2.36397      9.68767         0.000061      0.000055     -0.000068
     13.02771      2.36467      9.68767        -0.000018      0.000070     -0.000056
      6.02177      9.24743      9.68767        -0.000007      0.000124     -0.000068
     13.02696      9.24813      9.68767        -0.000044      0.000140     -0.000056
      6.02252      2.36397     14.53774         0.000320     -0.000118      0.000183
     13.02771      2.36467     14.53774         0.000021      0.000065     -0.000014
      6.02177      9.24743     14.53774         0.000020      0.000250      0.000184
     13.02696      9.24813     14.53774        -0.000036      0.000082     -0.000013
      0.98193      4.52018      4.83761         0.000013     -0.000025     -0.000031
      7.98713      4.52087      4.83761        -0.000031      0.000055     -0.000031
      0.98118     11.40363      4.83761         0.000069     -0.000115     -0.000048
      7.98638     11.40433      4.83761         0.000012     -0.000048     -0.000049
      0.98193      4.52018      9.68767        -0.000012     -0.000068     -0.000086
      7.98713      4.52087      9.68767         0.000030     -0.000165     -0.000086
      0.98118     11.40363      9.68767        -0.000019     -0.000060     -0.000037
      7.98638     11.40433      9.68767        -0.000009     -0.000081     -0.000037
      0.98193      4.52018     14.53774        -0.000245     -0.000112      0.000121
      7.98713      4.52087     14.53774         0.000116     -0.000277      0.000119
      0.98118     11.40363     14.53774        -0.000007     -0.000064     -0.000017
      7.98638     11.40433     14.53774         0.000032     -0.000066     -0.000017
      4.48438      5.80559      0.81079        -0.002017      0.003864      0.037324
     11.48958      5.80628      0.82079         0.000029      0.000019      0.000031
      4.48363     12.68904      0.82079         0.000081      0.000046      0.000068
     11.48883     12.68974      0.82079         0.000000      0.000020      0.000071
      4.48438      5.80559      5.67085        -0.000107      0.000260     -0.000629
     11.48958      5.80628      5.67085         0.000162      0.000018      0.000003
      4.48363     12.68904      5.67085         0.000010     -0.000193     -0.000005
     11.48883     12.68974      5.67085         0.000028      0.000012      0.000059
      4.48438      5.80559     10.52092         0.000192     -0.000180     -0.000637
     11.48958      5.80628     10.52092        -0.000082     -0.000001      0.000004
      4.48363     12.68904     10.52092         0.000063      0.000054     -0.000005
     11.48883     12.68974     10.52092         0.000007      0.000028      0.000059
      2.52007      1.07856      0.82079        -0.000185     -0.000900      0.000354
      9.52526      1.07926      0.82079         0.000017     -0.000039      0.000087
      2.51931      7.96202      0.82079         0.000226     -0.000246      0.002412
      9.52451      7.96271      0.82079         0.000088     -0.000048      0.000045
      2.52007      1.07856      5.67085        -0.000022      0.000054      0.000032
      9.52526      1.07926      5.67085        -0.000009     -0.000021      0.000054
      2.51931      7.96202      5.67085         0.000645     -0.000883     -0.001301
      9.52451      7.96271      5.67085        -0.000121     -0.000043      0.000022
      2.52007      1.07856     10.52092        -0.000013     -0.000029      0.000032
      9.52526      1.07926     10.52092        -0.000010     -0.000026      0.000054
      2.51931      7.96202     10.52092        -0.000758      0.000640     -0.001309
      9.52451      7.96271     10.52092         0.000067     -0.000037      0.000023
      2.51967      4.52025      2.41255         0.006835      0.005823     -0.003460
      9.52486      4.52095      2.41255        -0.000010     -0.000031      0.000001
      2.51891     11.40371      2.41255         0.000007     -0.000031      0.000104
      9.52411     11.40440      2.41255        -0.000036      0.000001     -0.000004
      2.51967      4.52025      7.26261         0.000014      0.000030     -0.000060
      9.52486      4.52095      7.26261        -0.000025      0.000010     -0.000055
      2.51891     11.40371      7.26261        -0.000008      0.000045     -0.000082
      9.52411     11.40440      7.26261        -0.000011     -0.000003     -0.000018
      2.51967      4.52025     12.11268        -0.000852     -0.000878     -0.001229
      9.52486      4.52095     12.11268         0.000072     -0.000051     -0.000063
      2.51891     11.40371     12.11268         0.000002     -0.000027      0.000016
      9.52411     11.40440     12.11268         0.000020     -0.000004     -0.000015
      4.48478      2.36390      2.41255         0.000043     -0.000137      0.000263
     11.48998      2.36459      2.41255         0.000098      0.000014      0.000030
      4.48403      9.24735      2.41255        -0.000116     -0.000836      0.000265
     11.48923      9.24805      2.41255         0.000025      0.000020      0.000029
      4.48478      2.36390      7.26261         0.000022      0.000011     -0.000090
     11.48998      2.36459      7.26261        -0.000010     -0.000006     -0.000035
      4.48403      9.24735      7.26261        -0.000032     -0.000011     -0.000090
     11.48923      9.24805      7.26261        -0.000011     -0.000003     -0.000036
      4.48478      2.36390     12.11268         0.000051     -0.000175     -0.000180
     11.48998      2.36459     12.11268        -0.000009     -0.000005     -0.000013
      4.48403      9.24735     12.11268         0.000144      0.000664     -0.000181
     11.48923      9.24805     12.11268        -0.000015      0.000019     -0.000013
      6.02211      5.80576      3.24586        -0.007625      0.000697     -0.010033
     13.02731      5.80646      3.24586         0.000109     -0.000003      0.000065
      6.02136     12.68921      3.24586         0.000017      0.000020      0.000036
     13.02655     12.68991      3.24586         0.000012     -0.000021      0.000025
      6.02211      5.80576      8.09592         0.000023      0.000022     -0.000215
     13.02731      5.80646      8.09592         0.000019      0.000008     -0.000110
      6.02136     12.68921      8.09592         0.000023      0.000009     -0.000006
     13.02655     12.68991      8.09592         0.000007      0.000006      0.000000
      6.02211      5.80576     12.94599         0.008025     -0.000704     -0.010478
     13.02731      5.80646     12.94599        -0.000023      0.000024      0.000065
      6.02136     12.68921     12.94599         0.000063      0.000017      0.000036
     13.02655     12.68991     12.94599         0.000002      0.000035      0.000025
      0.98234      1.07839      3.24586         0.000008      0.000056     -0.000010
      7.98754      1.07909      3.24586        -0.000027      0.000088      0.000015
      0.98159      7.96185      3.24586         0.000848     -0.000061      0.000159
      7.98679      7.96254      3.24586        -0.000185     -0.000064      0.000105
      0.98234      1.07839      8.09592        -0.000014      0.000003      0.000001
      7.98754      1.07909      8.09592        -0.000011      0.000021      0.000001
      0.98159      7.96185      8.09592         0.000005     -0.000028     -0.000276
      7.98679      7.96254      8.09592        -0.000003     -0.000036     -0.000276
      0.98234      1.07839     12.94599        -0.000044     -0.000067      0.000015
      7.98754      1.07909     12.94599         0.000001     -0.000036     -0.000010
      0.98159      7.96185     12.94599        -0.000530      0.000107      0.000106
      7.98679      7.96254     12.94599         0.000113      0.000132      0.000161
      0.00000      0.00000      0.79726         0.000038     -0.000005     -0.000131
      7.00520      0.00070      0.79726        -0.000069     -0.000031     -0.000131
     -0.00075      6.88346      0.79726        -0.000095      0.000022     -0.000229
      7.00445      6.88415      0.79726        -0.000917      0.000170      0.002098
      0.00000      0.00000      5.64732        -0.000018     -0.000023     -0.000079
      7.00520      0.00070      5.64732        -0.000018     -0.000025     -0.000076
     -0.00075      6.88346      5.64732        -0.000703     -0.000261      0.000147
      7.00445      6.88415      5.64732         0.000329      0.000261      0.000647
      0.00000      0.00000     10.49739         0.000019     -0.000007     -0.000068
      7.00520      0.00070     10.49739        -0.000046      0.000003     -0.000047
     -0.00075      6.88346     10.49739         0.000568      0.000158      0.000167
      7.00445      6.88415     10.49739        -0.000370     -0.000292      0.000670
      3.50260      0.00035      3.22217        -0.000072      0.000058     -0.000212
     10.50780      0.00104      3.22217        -0.000050      0.000008     -0.000023
      3.50185      6.88380      3.22217         0.002783     -0.005620     -0.007747
     10.50705      6.88450      3.22217        -0.000209      0.000086     -0.000099
      3.50260      0.00035      8.07224        -0.000013     -0.000045      0.000170
     10.50780      0.00104      8.07224        -0.000017      0.000019      0.000025
      3.50185      6.88380      8.07224        -0.000011      0.000011      0.000435
     10.50705      6.88450      8.07224        -0.000003      0.000018      0.000301
      3.50260      0.00035     12.92230        -0.000081      0.000230      0.000228
     10.50780      0.00104     12.92230         0.000015      0.000008     -0.000003
      3.50185      6.88380     12.92230        -0.003862      0.003184     -0.006365
     10.50705      6.88450     12.92230         0.000062     -0.000066     -0.000062
     -0.00038      3.44173      2.43625        -0.000242     -0.000105     -0.000176
      7.00482      3.44242      2.43625        -0.000487      0.000322      0.000012
     -0.00113     10.32518      2.43625        -0.000104      0.000039     -0.000043
      7.00407     10.32588      2.43625         0.000177     -0.000007     -0.000076
     -0.00038      3.44173      7.28632         0.000040     -0.000049      0.000042
      7.00482      3.44242      7.28632         0.000037     -0.000027      0.000030
     -0.00113     10.32518      7.28632         0.000027      0.000019      0.000022
      7.00407     10.32588      7.28632         0.000006      0.000056      0.000121
     -0.00038      3.44173     12.13638        -0.000057      0.000010      0.000032
      7.00482      3.44242     12.13638         0.000138     -0.000514     -0.000490
     -0.00113     10.32518     12.13638         0.000100     -0.000020     -0.000059
      7.00407     10.32588     12.13638        -0.000000      0.000026     -0.000135
      3.50222      3.44208      0.01111        -0.002550     -0.005044     -0.000755
     10.50742      3.44277      0.01111        -0.000106      0.000068     -0.000003
      3.50147     10.32553      0.01111        -0.000064     -0.000108     -0.000266
     10.50667     10.32623      0.01111        -0.000027      0.000004      0.000010
      3.50222      3.44208      4.86117         0.000048     -0.000067     -0.000175
     10.50742      3.44277      4.86117         0.000032      0.000012      0.000070
      3.50147     10.32553      4.86117         0.000277      0.000788      0.000244
     10.50667     10.32623      4.86117         0.000026      0.000005      0.000064
      3.50222      3.44208      9.71124        -0.000032      0.000081      0.000184
     10.50742      3.44277      9.71124         0.000018      0.000009      0.000110
      3.50147     10.32553      9.71124         0.000042     -0.000148      0.000446
     10.50667     10.32623      9.71124        -0.000001      0.000013      0.000084
 -----------------------------------------------------------------------------------
    total drift:                               -0.000007      0.000002      0.000002


--------------------------------------------------------------------------------------------------------



  FREE ENERGIE OF THE ION-ELECTRON SYSTEM (eV)
  ---------------------------------------------------
  free  energy   TOTEN  =      -505.12823001 eV

  energy  without entropy=     -505.11300748  energy(sigma->0) =     -505.12061874
 


--------------------------------------------------------------------------------------------------------


    POTLOK:  cpu time    3.3854: real time    3.3935


--------------------------------------------------------------------------------------------------------


     LOOP+:  cpu time19794.4006: real time19842.0450
    4ORBIT:  cpu time    0.0000: real time    0.0000

 total amount of memory used by VASP MPI-rank0  1502421. kBytes
=======================================================================

   base      :      30000. kBytes
   nonl-proj :      48757. kBytes
   fftplans  :     217509. kBytes
   grid      :      89026. kBytes
   one-center:        233. kBytes
   wavefun   :    1116896. kBytes
 
  
  
 General timing and accounting informations for this job:
 ========================================================
  
                  Total CPU time used (sec):    20019.748
                            User time (sec):    20000.909
                          System time (sec):       18.839
                         Elapsed time (sec):    20068.995
  
                   Maximum memory used (kb):     1850376.
                   Average memory used (kb):           0.
  
                          Minor page faults:      2085937
                          Major page faults:            1
                 Voluntary context switches:       195945
