<?xml version="1.0" encoding="ISO-8859-1"?>
<modeling>
 <generator>
  <i name="program" type="string">vasp </i>
  <i name="version" type="string">5.4.4.18Apr17-6-g9f103f2a35  </i>
  <i name="subversion" type="string">(build Jul 30 2020 14:31:59) complex            parallel </i>
  <i name="platform" type="string">LinuxIFC </i>
  <i name="date" type="string">2021 02 04 </i>
  <i name="time" type="string">08:07:51 </i>
 </generator>
 <incar>
  <i type="string" name="PREC">accurate</i>
  <i type="string" name="ALGO"> normal</i>
  <i type="logical" name="ADDGRID"> T  </i>
  <i type="int" name="ISPIN">     1</i>
  <i type="int" name="NELM">   200</i>
  <i type="int" name="NELMIN">     8</i>
  <i name="EDIFF">      0.00000001</i>
  <i type="int" name="ISIF">     3</i>
  <i type="int" name="ISYM">     0</i>
  <i name="ENCUT">    650.00000000</i>
  <i type="logical" name="LREAL"> F  </i>
  <i type="int" name="ISMEAR">     0</i>
  <i name="SIGMA">      0.05000000</i>
  <i type="logical" name="LWAVE"> F  </i>
  <i type="logical" name="LASPH"> T  </i>
  <v type="int" name="KPOINT_BSE">    -1     0     0     0</v>
  <i type="int" name="NELM">   200</i>
  <i type="string" name="GGA"> ps</i>
  <i type="logical" name="LASPH"> T  </i>
 </incar>
 <structure name="primitive_cell" >
  <crystal>
   <varray name="basis" >
    <v>      14.01039598       0.00139138       0.00000000 </v>
    <v>      -0.00150196      13.76691092       0.00000000 </v>
    <v>       0.00000000       0.00000000      14.55019386 </v>
   </varray>
   <i name="volume">   2806.43958022 </i>
   <varray name="rec_basis" >
    <v>       0.07137557       0.00000779       0.00000000 </v>
    <v>      -0.00000721       0.07263794       0.00000000 </v>
    <v>       0.00000000       0.00000000       0.06872761 </v>
   </varray>
  </crystal>
  <varray name="positions" >
   <v>       0.42987898       0.17167077       0.33247735 </v>
   <v>      -0.50000000       0.00000000       0.38812698 </v>
   <v>       0.25000000       0.25000000       0.33409665 </v>
   <v>      -0.50000000       0.25000000       0.16743769 </v>
   <v>      -0.42987656       0.07832506       0.22308000 </v>
   <v>      -0.50000000       0.25000000      -0.49922898 </v>
   <v>       0.32012224       0.17167631       0.49914189 </v>
   <v>       0.32012224       0.17167631       0.16580856 </v>
   <v>      -0.42987898       0.32832923       0.33247735 </v>
   <v>       0.42987656      -0.07832506       0.22308000 </v>
   <v>       0.42987656       0.42167494       0.22308000 </v>
   <v>       0.25000000       0.00000000       0.22145206 </v>
   <v>       0.17987948       0.07832633       0.38974408 </v>
   <v>      -0.32012052       0.07832633       0.38974408 </v>
   <v>       0.32012052      -0.07832633       0.38974408 </v>
   <v>       0.32012052       0.42167367       0.38974408 </v>
   <v>      -0.42987656       0.07832506      -0.44358667 </v>
   <v>      -0.25000000       0.25000000       0.33409665 </v>
   <v>      -0.50000000      -0.50000000       0.38812698 </v>
   <v>       0.25000000       0.00000000      -0.44521461 </v>
   <v>       0.42987656      -0.07832506      -0.44358667 </v>
   <v>       0.42987656       0.42167494      -0.44358667 </v>
   <v>      -0.32012224       0.32832369       0.49914189 </v>
   <v>      -0.32012224       0.32832369       0.16580856 </v>
   <v>       0.17987776       0.32832369       0.49914189 </v>
   <v>       0.17987776       0.32832369       0.16580856 </v>
   <v>      -0.50000000       0.00000000       0.05479365 </v>
   <v>       0.42987898       0.17167077      -0.33418932 </v>
   <v>       0.42987898       0.17167077      -0.00085599 </v>
   <v>      -0.42987898      -0.17167077       0.33247735 </v>
   <v>      -0.25000000       0.00000000       0.22145206 </v>
   <v>       0.25000000      -0.50000000       0.22145206 </v>
   <v>       0.07012344       0.07832506       0.22308000 </v>
   <v>       0.17987948       0.07832633       0.05641075 </v>
   <v>      -0.32012052       0.07832633       0.05641075 </v>
   <v>       0.07012102       0.32832923       0.33247735 </v>
   <v>       0.32012052      -0.07832633       0.05641075 </v>
   <v>       0.32012052       0.42167367       0.05572347 </v>
   <v>       0.25000000       0.25000000       0.00076332 </v>
   <v>       0.25000000       0.25000000      -0.33257001 </v>
   <v>      -0.42987898       0.32832923      -0.33418932 </v>
   <v>      -0.42987898       0.32832923      -0.00085599 </v>
   <v>      -0.17987776       0.17167631       0.49914189 </v>
   <v>      -0.17987776       0.17167631       0.16580856 </v>
   <v>      -0.25000000       0.00000000      -0.44521461 </v>
   <v>       0.25000000      -0.50000000      -0.44521461 </v>
   <v>       0.07012344       0.07832506      -0.44358667 </v>
   <v>      -0.50000000      -0.50000000       0.05479365 </v>
   <v>      -0.42987656      -0.42167494       0.22308000 </v>
   <v>      -0.50000000       0.00000000      -0.27853968 </v>
   <v>       0.25000000      -0.25000000       0.33409665 </v>
   <v>      -0.50000000      -0.25000000       0.16743769 </v>
   <v>       0.17987776      -0.17167631       0.49914189 </v>
   <v>       0.17987776      -0.17167631       0.16580856 </v>
   <v>      -0.32012224      -0.17167631       0.49914189 </v>
   <v>      -0.32012224      -0.17167631       0.16580856 </v>
   <v>      -0.50000000      -0.25000000      -0.49922898 </v>
   <v>      -0.17987948       0.42167367       0.38974408 </v>
   <v>      -0.17987948      -0.07832633       0.38974408 </v>
   <v>       0.00000000       0.00000000       0.38812698 </v>
   <v>      -0.25000000      -0.50000000       0.22145206 </v>
   <v>       0.00000000       0.25000000       0.16743769 </v>
   <v>       0.00000000       0.25000000      -0.49922898 </v>
   <v>      -0.32012052      -0.42167367       0.38974408 </v>
   <v>       0.17987948      -0.42167367       0.38974408 </v>
   <v>      -0.25000000       0.25000000       0.00076332 </v>
   <v>      -0.25000000       0.25000000      -0.33257001 </v>
   <v>      -0.42987656      -0.42167494      -0.44358667 </v>
   <v>       0.17987948       0.07832633      -0.27692259 </v>
   <v>      -0.32012052       0.07832633      -0.27692259 </v>
   <v>       0.32012052      -0.07832633      -0.27692259 </v>
   <v>       0.32012052       0.42167367      -0.27692259 </v>
   <v>      -0.42987656       0.07832506      -0.11025334 </v>
   <v>       0.42987898      -0.32832923       0.33247735 </v>
   <v>       0.07012102      -0.17167077       0.33247735 </v>
   <v>      -0.07012102       0.17167077       0.33247735 </v>
   <v>      -0.42987898      -0.17167077      -0.33418932 </v>
   <v>      -0.42987898      -0.17167077      -0.00085599 </v>
   <v>      -0.25000000      -0.50000000      -0.44521461 </v>
   <v>       0.42987656      -0.07832506      -0.11025334 </v>
   <v>       0.42987656       0.42167494      -0.11025334 </v>
   <v>      -0.50000000      -0.50000000      -0.27853968 </v>
   <v>       0.07012102       0.32832923      -0.33418932 </v>
   <v>       0.07012102       0.32832923      -0.00085599 </v>
   <v>       0.25000000       0.00000000      -0.11188127 </v>
   <v>      -0.25000000      -0.25000000       0.33409665 </v>
   <v>      -0.50000000       0.25000000      -0.16589565 </v>
   <v>       0.32012224       0.17167631      -0.16752478 </v>
   <v>       0.32012224      -0.32832369       0.49914189 </v>
   <v>       0.32012224      -0.32832369       0.16580856 </v>
   <v>       0.00000000      -0.50000000       0.38812698 </v>
   <v>      -0.17987948       0.42167367       0.05641075 </v>
   <v>      -0.17987948      -0.07832633       0.05641075 </v>
   <v>       0.00000000       0.00000000       0.05479365 </v>
   <v>       0.07012344      -0.42167494       0.22308000 </v>
   <v>      -0.32012052      -0.42167367       0.05641075 </v>
   <v>       0.17987948      -0.42167367       0.05641075 </v>
   <v>       0.25000000      -0.25000000       0.00076332 </v>
   <v>      -0.07012344       0.42167494       0.22308000 </v>
   <v>      -0.07012344      -0.07832506       0.22308000 </v>
   <v>       0.25000000      -0.25000000      -0.33257001 </v>
   <v>       0.07012344      -0.42167494      -0.44358667 </v>
   <v>      -0.25000000       0.00000000      -0.11188127 </v>
   <v>       0.07012344       0.07832506      -0.11025334 </v>
   <v>       0.25000000      -0.50000000      -0.11188127 </v>
   <v>      -0.32012224       0.32832369      -0.16752478 </v>
   <v>       0.17987776       0.32832369      -0.16752478 </v>
   <v>       0.42987898      -0.32832923      -0.33418932 </v>
   <v>       0.42987898      -0.32832923      -0.00085599 </v>
   <v>       0.07012102      -0.17167077      -0.33418932 </v>
   <v>       0.07012102      -0.17167077      -0.00085599 </v>
   <v>      -0.07012344       0.42167494      -0.44358667 </v>
   <v>      -0.07012344      -0.07832506      -0.44358667 </v>
   <v>      -0.07012102       0.17167077      -0.33418932 </v>
   <v>      -0.07012102       0.17167077      -0.00085599 </v>
   <v>       0.00000000      -0.50000000       0.05479365 </v>
   <v>       0.00000000       0.00000000      -0.27853968 </v>
   <v>      -0.17987948       0.42167367      -0.27692259 </v>
   <v>      -0.17987948      -0.07832633      -0.27692259 </v>
   <v>       0.00000000      -0.25000000       0.16743769 </v>
   <v>      -0.32012052      -0.42167367      -0.27692259 </v>
   <v>       0.17987948      -0.42167367      -0.27692259 </v>
   <v>       0.00000000      -0.25000000      -0.49922898 </v>
   <v>      -0.42987656      -0.42167494      -0.11025334 </v>
   <v>      -0.25000000      -0.25000000       0.00076332 </v>
   <v>      -0.25000000      -0.25000000      -0.33257001 </v>
   <v>      -0.25000000      -0.50000000      -0.11188127 </v>
   <v>      -0.17987776       0.17167631      -0.16752478 </v>
   <v>      -0.17987776      -0.32832369       0.49914189 </v>
   <v>      -0.17987776      -0.32832369       0.16580856 </v>
   <v>      -0.50000000      -0.25000000      -0.16589565 </v>
   <v>       0.17987776      -0.17167631      -0.16752478 </v>
   <v>      -0.32012224      -0.17167631      -0.16752478 </v>
   <v>       0.00000000      -0.50000000      -0.27853968 </v>
   <v>       0.00000000       0.25000000      -0.16589565 </v>
   <v>      -0.07012102      -0.32832923       0.33247735 </v>
   <v>       0.07012344      -0.42167494      -0.11025334 </v>
   <v>      -0.07012344       0.42167494      -0.11025334 </v>
   <v>      -0.07012344      -0.07832506      -0.11025334 </v>
   <v>       0.32012224      -0.32832369      -0.16752478 </v>
   <v>      -0.07012102      -0.32832923      -0.33418932 </v>
   <v>      -0.07012102      -0.32832923      -0.00085599 </v>
   <v>       0.00000000      -0.25000000      -0.16589565 </v>
   <v>      -0.17987776      -0.32832369      -0.16752478 </v>
  </varray>
 </structure>
 <varray name="primitive_index" >
  <v type="int" >        1 </v>
  <v type="int" >      102 </v>
  <v type="int" >      137 </v>
  <v type="int" >      122 </v>
  <v type="int" >       86 </v>
  <v type="int" >      126 </v>
  <v type="int" >       65 </v>
  <v type="int" >       61 </v>
  <v type="int" >       14 </v>
  <v type="int" >       75 </v>
  <v type="int" >       73 </v>
  <v type="int" >      109 </v>
  <v type="int" >       41 </v>
  <v type="int" >       42 </v>
  <v type="int" >       31 </v>
  <v type="int" >       29 </v>
  <v type="int" >       90 </v>
  <v type="int" >      138 </v>
  <v type="int" >      104 </v>
  <v type="int" >      113 </v>
  <v type="int" >       79 </v>
  <v type="int" >       77 </v>
  <v type="int" >       54 </v>
  <v type="int" >       50 </v>
  <v type="int" >       53 </v>
  <v type="int" >       49 </v>
  <v type="int" >       98 </v>
  <v type="int" >        5 </v>
  <v type="int" >        9 </v>
  <v type="int" >       16 </v>
  <v type="int" >      110 </v>
  <v type="int" >      111 </v>
  <v type="int" >       85 </v>
  <v type="int" >       37 </v>
  <v type="int" >       38 </v>
  <v type="int" >       13 </v>
  <v type="int" >       27 </v>
  <v type="int" >       25 </v>
  <v type="int" >      133 </v>
  <v type="int" >      141 </v>
  <v type="int" >       18 </v>
  <v type="int" >       22 </v>
  <v type="int" >       66 </v>
  <v type="int" >       62 </v>
  <v type="int" >      114 </v>
  <v type="int" >      115 </v>
  <v type="int" >       89 </v>
  <v type="int" >      100 </v>
  <v type="int" >       88 </v>
  <v type="int" >      106 </v>
  <v type="int" >      139 </v>
  <v type="int" >      124 </v>
  <v type="int" >       55 </v>
  <v type="int" >       51 </v>
  <v type="int" >       56 </v>
  <v type="int" >       52 </v>
  <v type="int" >      128 </v>
  <v type="int" >       30 </v>
  <v type="int" >       32 </v>
  <v type="int" >      101 </v>
  <v type="int" >      112 </v>
  <v type="int" >      121 </v>
  <v type="int" >      125 </v>
  <v type="int" >       44 </v>
  <v type="int" >       43 </v>
  <v type="int" >      134 </v>
  <v type="int" >      142 </v>
  <v type="int" >       92 </v>
  <v type="int" >       45 </v>
  <v type="int" >       46 </v>
  <v type="int" >       35 </v>
  <v type="int" >       33 </v>
  <v type="int" >       94 </v>
  <v type="int" >        3 </v>
  <v type="int" >       15 </v>
  <v type="int" >        2 </v>
  <v type="int" >       20 </v>
  <v type="int" >       24 </v>
  <v type="int" >      116 </v>
  <v type="int" >       83 </v>
  <v type="int" >       81 </v>
  <v type="int" >      108 </v>
  <v type="int" >       17 </v>
  <v type="int" >       21 </v>
  <v type="int" >      117 </v>
  <v type="int" >      140 </v>
  <v type="int" >      130 </v>
  <v type="int" >       69 </v>
  <v type="int" >       67 </v>
  <v type="int" >       63 </v>
  <v type="int" >      103 </v>
  <v type="int" >       26 </v>
  <v type="int" >       28 </v>
  <v type="int" >       97 </v>
  <v type="int" >       87 </v>
  <v type="int" >       40 </v>
  <v type="int" >       39 </v>
  <v type="int" >      135 </v>
  <v type="int" >       74 </v>
  <v type="int" >       76 </v>
  <v type="int" >      143 </v>
  <v type="int" >       91 </v>
  <v type="int" >      118 </v>
  <v type="int" >       93 </v>
  <v type="int" >      119 </v>
  <v type="int" >       58 </v>
  <v type="int" >       57 </v>
  <v type="int" >        7 </v>
  <v type="int" >       11 </v>
  <v type="int" >       19 </v>
  <v type="int" >       23 </v>
  <v type="int" >       78 </v>
  <v type="int" >       80 </v>
  <v type="int" >        6 </v>
  <v type="int" >       10 </v>
  <v type="int" >       99 </v>
  <v type="int" >      105 </v>
  <v type="int" >       34 </v>
  <v type="int" >       36 </v>
  <v type="int" >      123 </v>
  <v type="int" >       48 </v>
  <v type="int" >       47 </v>
  <v type="int" >      127 </v>
  <v type="int" >       96 </v>
  <v type="int" >      136 </v>
  <v type="int" >      144 </v>
  <v type="int" >      120 </v>
  <v type="int" >       70 </v>
  <v type="int" >       68 </v>
  <v type="int" >       64 </v>
  <v type="int" >      132 </v>
  <v type="int" >       59 </v>
  <v type="int" >       60 </v>
  <v type="int" >      107 </v>
  <v type="int" >      129 </v>
  <v type="int" >        4 </v>
  <v type="int" >       95 </v>
  <v type="int" >       82 </v>
  <v type="int" >       84 </v>
  <v type="int" >       71 </v>
  <v type="int" >        8 </v>
  <v type="int" >       12 </v>
  <v type="int" >      131 </v>
  <v type="int" >       72 </v>
 </varray>
 <kpoints>
  <generation param="Gamma">
   <v type="int" name="divisions">       2        2        2 </v>
   <v name="usershift">      0.00000000       0.00000000       0.00000000 </v>
   <v name="genvec1">      0.50000000       0.00000000       0.00000000 </v>
   <v name="genvec2">      0.00000000       0.50000000       0.00000000 </v>
   <v name="genvec3">      0.00000000       0.00000000       0.50000000 </v>
   <v name="shift">      0.00000000       0.00000000       0.00000000 </v>
  </generation>
  <varray name="kpointlist" >
   <v>       0.00000000       0.00000000       0.00000000 </v>
   <v>       0.50000000      -0.00000000       0.00000000 </v>
   <v>       0.00000000       0.50000000       0.00000000 </v>
   <v>       0.50000000       0.50000000       0.00000000 </v>
   <v>       0.00000000       0.00000000       0.50000000 </v>
   <v>       0.50000000      -0.00000000       0.50000000 </v>
   <v>       0.00000000       0.50000000       0.50000000 </v>
   <v>       0.50000000       0.50000000       0.50000000 </v>
  </varray>
  <varray name="weights" >
   <v>       0.12500000 </v>
   <v>       0.12500000 </v>
   <v>       0.12500000 </v>
   <v>       0.12500000 </v>
   <v>       0.12500000 </v>
   <v>       0.12500000 </v>
   <v>       0.12500000 </v>
   <v>       0.12500000 </v>
  </varray>
 </kpoints>
 <parameters>
  <separator name="general" >
   <i type="string" name="SYSTEM">unknown system</i>
   <i type="logical" name="LCOMPAT"> F  </i>
  </separator>
  <separator name="electronic" >
   <i type="string" name="PREC">accura</i>
   <i name="ENMAX">    650.00000000</i>
   <i name="ENAUG">    446.84200000</i>
   <i name="EDIFF">      0.00000001</i>
   <i type="int" name="IALGO">    38</i>
   <i type="int" name="IWAVPR">    10</i>
   <i type="int" name="NBANDS">   806</i>
   <i name="NELECT">   1344.00000000</i>
   <i type="int" name="TURBO">     0</i>
   <i type="int" name="IRESTART">     0</i>
   <i type="int" name="NREBOOT">     0</i>
   <i type="int" name="NMIN">     0</i>
   <i name="EREF">      0.00000000</i>
   <separator name="electronic smearing" >
    <i type="int" name="ISMEAR">     0</i>
    <i name="SIGMA">      0.05000000</i>
    <i name="KSPACING">      0.50000000</i>
    <i type="logical" name="KGAMMA"> T  </i>
   </separator>
   <separator name="electronic projectors" >
    <i type="logical" name="LREAL"> F  </i>
    <v name="ROPT">      0.00000000      0.00000000</v>
    <i type="int" name="LMAXPAW">  -100</i>
    <i type="int" name="LMAXMIX">     2</i>
    <i type="logical" name="NLSPLINE"> F  </i>
   </separator>
   <separator name="electronic startup" >
    <i type="int" name="ISTART">     0</i>
    <i type="int" name="ICHARG">     2</i>
    <i type="int" name="INIWAV">     1</i>
   </separator>
   <separator name="electronic spin" >
    <i type="int" name="ISPIN">     1</i>
    <i type="logical" name="LNONCOLLINEAR"> F  </i>
    <v name="MAGMOM">      1.00000000      1.00000000      1.00000000      1.00000000      1.00000000      1.00000000      1.00000000      1.00000000      1.00000000      1.00000000      1.00000000      1.00000000      1.00000000      1.00000000      1.00000000      1.00000000      1.00000000      1.00000000      1.00000000      1.00000000
      1.00000000      1.00000000      1.00000000      1.00000000      1.00000000      1.00000000      1.00000000      1.00000000      1.00000000      1.00000000      1.00000000      1.00000000      1.00000000      1.00000000      1.00000000      1.00000000      1.00000000      1.00000000      1.00000000      1.00000000
      1.00000000      1.00000000      1.00000000      1.00000000      1.00000000      1.00000000      1.00000000      1.00000000      1.00000000      1.00000000      1.00000000      1.00000000      1.00000000      1.00000000      1.00000000      1.00000000      1.00000000      1.00000000      1.00000000      1.00000000
      1.00000000      1.00000000      1.00000000      1.00000000      1.00000000      1.00000000      1.00000000      1.00000000      1.00000000      1.00000000      1.00000000      1.00000000      1.00000000      1.00000000      1.00000000      1.00000000      1.00000000      1.00000000      1.00000000      1.00000000
      1.00000000      1.00000000      1.00000000      1.00000000      1.00000000      1.00000000      1.00000000      1.00000000      1.00000000      1.00000000      1.00000000      1.00000000      1.00000000      1.00000000      1.00000000      1.00000000      1.00000000      1.00000000      1.00000000      1.00000000
      1.00000000      1.00000000      1.00000000      1.00000000      1.00000000      1.00000000      1.00000000      1.00000000      1.00000000      1.00000000      1.00000000      1.00000000      1.00000000      1.00000000      1.00000000      1.00000000      1.00000000      1.00000000      1.00000000      1.00000000
      1.00000000      1.00000000      1.00000000      1.00000000      1.00000000      1.00000000      1.00000000      1.00000000      1.00000000      1.00000000      1.00000000      1.00000000      1.00000000      1.00000000      1.00000000      1.00000000      1.00000000      1.00000000      1.00000000      1.00000000
      1.00000000      1.00000000      1.00000000      1.00000000</v>
    <i name="NUPDOWN">     -1.00000000</i>
    <i type="logical" name="LSORBIT"> F  </i>
    <v name="SAXIS">      0.00000000      0.00000000      1.00000000</v>
    <i type="logical" name="LSPIRAL"> F  </i>
    <v name="QSPIRAL">      0.00000000      0.00000000      0.00000000</v>
    <i type="logical" name="LZEROZ"> F  </i>
   </separator>
   <separator name="electronic exchange-correlation" >
    <i type="logical" name="LASPH"> T  </i>
    <i type="logical" name="LMETAGGA"> F  </i>
   </separator>
   <separator name="electronic convergence" >
    <i type="int" name="NELM">   200</i>
    <i type="int" name="NELMDL">    -5</i>
    <i type="int" name="NELMIN">     8</i>
    <i name="ENINI">    650.00000000</i>
    <separator name="electronic convergence detail" >
     <i type="logical" name="LDIAG"> T  </i>
     <i type="logical" name="LSUBROT"> F  </i>
     <i name="WEIMIN">      0.00000000</i>
     <i name="EBREAK">      0.00000000</i>
     <i name="DEPER">      0.30000000</i>
     <i type="int" name="NRMM">     4</i>
     <i name="TIME">      0.40000000</i>
    </separator>
   </separator>
   <separator name="electronic mixer" >
    <i name="AMIX">      0.40000000</i>
    <i name="BMIX">      1.00000000</i>
    <i name="AMIN">      0.10000000</i>
    <i name="AMIX_MAG">      1.60000000</i>
    <i name="BMIX_MAG">      1.00000000</i>
    <separator name="electronic mixer details" >
     <i type="int" name="IMIX">     4</i>
     <i type="logical" name="MIXFIRST"> F  </i>
     <i type="int" name="MAXMIX">   -45</i>
     <i name="WC">    100.00000000</i>
     <i type="int" name="INIMIX">     1</i>
     <i type="int" name="MIXPRE">     1</i>
     <i type="int" name="MREMOVE">     5</i>
    </separator>
   </separator>
   <separator name="electronic dipolcorrection" >
    <i type="logical" name="LDIPOL"> F  </i>
    <i type="logical" name="LMONO"> F  </i>
    <i type="int" name="IDIPOL">     0</i>
    <i name="EPSILON">      1.00000000</i>
    <v name="DIPOL">   -100.00000000   -100.00000000   -100.00000000</v>
    <i name="EFIELD">      0.00000000</i>
   </separator>
  </separator>
  <separator name="grids" >
   <i type="int" name="NGX">   120</i>
   <i type="int" name="NGY">   120</i>
   <i type="int" name="NGZ">   126</i>
   <i type="int" name="NGXF">   240</i>
   <i type="int" name="NGYF">   240</i>
   <i type="int" name="NGZF">   252</i>
   <i type="logical" name="ADDGRID"> T  </i>
  </separator>
  <separator name="ionic" >
   <i type="int" name="NSW">     0</i>
   <i type="int" name="IBRION">    -1</i>
   <i type="int" name="MDALGO">     0</i>
   <i type="int" name="ISIF">     3</i>
   <i name="PSTRESS">      0.00000000</i>
   <i name="EDIFFG">      0.00000010</i>
   <i type="int" name="NFREE">     0</i>
   <i name="POTIM">      0.50000000</i>
   <i name="SMASS">     -3.00000000</i>
   <i name="SCALEE">      1.00000000</i>
  </separator>
  <separator name="ionic md" >
   <i name="TEBEG">      0.00010000</i>
   <i name="TEEND">      0.00010000</i>
   <i type="int" name="NBLOCK">     1</i>
   <i type="int" name="KBLOCK">     1</i>
   <i type="int" name="NPACO">   256</i>
   <i name="APACO">     16.00000000</i>
  </separator>
  <separator name="symmetry" >
   <i type="int" name="ISYM">     0</i>
   <i name="SYMPREC">      0.00001000</i>
  </separator>
  <separator name="dos" >
   <i type="int" name="LORBIT">     0</i>
   <v name="RWIGS">     -1.00000000     -1.00000000</v>
   <i type="int" name="NEDOS">   301</i>
   <i name="EMIN">     10.00000000</i>
   <i name="EMAX">    -10.00000000</i>
   <i name="EFERMI">      0.00000000</i>
  </separator>
  <separator name="writing" >
   <i type="int" name="NWRITE">     2</i>
   <i type="logical" name="LWAVE"> F  </i>
   <i type="logical" name="LDOWNSAMPLE"> F  </i>
   <i type="logical" name="LCHARG"> T  </i>
   <i type="logical" name="LPARD"> F  </i>
   <i type="logical" name="LVTOT"> F  </i>
   <i type="logical" name="LVHAR"> F  </i>
   <i type="logical" name="LELF"> F  </i>
   <i type="logical" name="LOPTICS"> F  </i>
   <v name="STM">      0.00000000      0.00000000      0.00000000      0.00000000      0.00000000      0.00000000      0.00000000</v>
  </separator>
  <separator name="performance" >
   <i type="int" name="NPAR">     1</i>
   <i type="int" name="NSIM">     4</i>
   <i type="int" name="NBLK">    -1</i>
   <i type="logical" name="LPLANE"> T  </i>
   <i type="logical" name="LSCALAPACK"> T  </i>
   <i type="logical" name="LSCAAWARE"> F  </i>
   <i type="logical" name="LSCALU"> F  </i>
   <i type="logical" name="LASYNC"> F  </i>
   <i type="logical" name="LORBITALREAL"> F  </i>
  </separator>
  <separator name="miscellaneous" >
   <i type="int" name="IDIOT">     3</i>
   <i type="int" name="ISPECIAL">     0</i>
   <i type="logical" name="LMUSIC"> F  </i>
   <v name="POMASS">    107.86800000     78.96000000</v>
   <v name="DARWINR">      0.00000000      0.00000000</v>
   <v name="DARWINV">      1.00000000      1.00000000</v>
   <i type="logical" name="LCORR"> T  </i>
  </separator>
  <i type="logical" name="GGA_COMPAT"> T  </i>
  <i type="logical" name="LBERRY"> F  </i>
  <i type="int" name="ICORELEVEL">     0</i>
  <i type="logical" name="LDAU"> F  </i>
  <i type="int" name="I_CONSTRAINED_M">     0</i>
  <separator name="electronic exchange-correlation" >
   <i type="string" name="GGA">PS</i>
   <i type="int" name="VOSKOWN">     0</i>
   <i type="logical" name="LHFCALC"> F  </i>
   <i type="string" name="PRECFOCK"></i>
   <i type="logical" name="LSYMGRAD"> F  </i>
   <i type="logical" name="LHFONE"> F  </i>
   <i type="logical" name="LRHFCALC"> F  </i>
   <i type="logical" name="LTHOMAS"> F  </i>
   <i type="logical" name="LMODELHF"> F  </i>
   <i name="ENCUT4O">     -1.00000000</i>
   <i type="int" name="EXXOEP">     0</i>
   <i type="int" name="FOURORBIT">     0</i>
   <i name="AEXX">      0.00000000</i>
   <i name="HFALPHA">      0.00000000</i>
   <i name="MCALPHA">      0.00000000</i>
   <i name="ALDAX">      1.00000000</i>
   <i name="AGGAX">      1.00000000</i>
   <i name="ALDAC">      1.00000000</i>
   <i name="AGGAC">      1.00000000</i>
   <i type="int" name="NKREDX">     1</i>
   <i type="int" name="NKREDY">     1</i>
   <i type="int" name="NKREDZ">     1</i>
   <i type="logical" name="SHIFTRED"> F  </i>
   <i type="logical" name="ODDONLY"> F  </i>
   <i type="logical" name="EVENONLY"> F  </i>
   <i type="int" name="LMAXFOCK">     0</i>
   <i type="int" name="NMAXFOCKAE">     0</i>
   <i type="logical" name="LFOCKAEDFT"> F  </i>
   <i name="HFSCREEN">      0.00000000</i>
   <i name="HFSCREENC">      0.00000000</i>
   <i type="int" name="NBANDSGWLOW">     0</i>
  </separator>
  <separator name="vdW DFT" >
   <i type="logical" name="LUSE_VDW"> F  </i>
   <i name="Zab_VDW">     -0.84910000</i>
   <i name="PARAM1">      0.12340000</i>
   <i name="PARAM2">      1.00000000</i>
   <i name="PARAM3">      0.00000000</i>
  </separator>
  <separator name="model GW" >
   <i type="int" name="MODEL_GW">     0</i>
   <i name="MODEL_EPS0">     11.69349825</i>
   <i name="MODEL_ALPHA">      1.00000000</i>
  </separator>
  <separator name="linear response parameters" >
   <i type="logical" name="LEPSILON"> F  </i>
   <i type="logical" name="LRPA"> F  </i>
   <i type="logical" name="LNABLA"> F  </i>
   <i type="logical" name="LVEL"> F  </i>
   <i type="int" name="KINTER">     0</i>
   <i name="CSHIFT">      0.10000000</i>
   <i name="OMEGAMAX">     -1.00000000</i>
   <i name="DEG_THRESHOLD">      0.00200000</i>
   <i name="RTIME">     -0.10000000</i>
   <i name="WPLASMAI">      0.00000000</i>
   <v name="DFIELD">      0.00000000      0.00000000      0.00000000</v>
   <v name="WPLASMA">      0.00000000      0.00000000      0.00000000      0.00000000      0.00000000      0.00000000      0.00000000      0.00000000      0.00000000</v>
  </separator>
  <separator name="orbital magnetization" >
   <i type="logical" name="NUCIND"> F  </i>
   <v name="MAGPOS">      0.00000000      0.00000000      0.00000000</v>
   <i type="logical" name="LNICSALL"> T  </i>
   <i type="logical" name="ORBITALMAG"> F  </i>
   <i type="logical" name="LMAGBLOCH"> F  </i>
   <i type="logical" name="LCHIMAG"> F  </i>
   <i type="logical" name="LGAUGE"> T  </i>
   <i type="int" name="MAGATOM">     0</i>
   <v name="MAGDIPOL">      0.00000000      0.00000000      0.00000000</v>
   <v name="AVECCONST">      0.00000000      0.00000000      0.00000000</v>
  </separator>
  <separator name="response functions" >
   <i type="logical" name="LADDER"> F  </i>
   <i type="logical" name="LRPAFORCE"> F  </i>
   <i type="logical" name="LFXC"> F  </i>
   <i type="logical" name="LHARTREE"> T  </i>
   <i type="int" name="IBSE">     0</i>
   <v type="int" name="KPOINT">    -1     0     0     0</v>
   <i type="logical" name="LTCTE"> F  </i>
   <i type="logical" name="LTETE"> F  </i>
   <i type="logical" name="LTRIPLET"> F  </i>
   <i type="logical" name="LFXCEPS"> F  </i>
   <i type="logical" name="LFXHEG"> F  </i>
   <i type="int" name="NATURALO">     2</i>
   <i type="logical" name="L2ORDER"> F  </i>
   <i type="logical" name="LMP2LT"> F  </i>
   <i type="logical" name="LUSEW"> F  </i>
   <i name="ENCUTGW">     -2.00000000</i>
   <i name="ENCUTGWSOFT">     -2.00000000</i>
   <i name="ENCUTLF">     -1.00000000</i>
   <i type="int" name="LMAXMP2">    -1</i>
   <i name="SCISSOR">      0.00000000</i>
   <i type="int" name="NOMEGA">     0</i>
   <i type="int" name="NOMEGAR">     0</i>
   <i type="int" name="NBANDSGW">    -1</i>
   <i type="int" name="NBANDSO">    -1</i>
   <i type="int" name="NBANDSV">    -1</i>
   <i type="int" name="NELM">   200</i>
   <i type="int" name="NELMHF">     1</i>
   <i type="int" name="DIM">     3</i>
   <i type="int" name="ANTIRES">     0</i>
   <i name="OMEGAMAX">    -30.00000000</i>
   <i name="OMEGAMIN">    -30.00000000</i>
   <i name="OMEGATL">   -200.00000000</i>
   <i type="int" name="OMEGAGRID">   140</i>
   <i name="CSHIFT">     -0.10000000</i>
   <i type="logical" name="SELFENERGY"> F  </i>
   <i type="logical" name="LSPECTRAL"> F  </i>
   <i type="logical" name="LSPECTRALGW"> F  </i>
   <i type="logical" name="LSINGLES"> F  </i>
   <i type="logical" name="LFERMIGW"> F  </i>
   <i type="logical" name="ODDONLYGW"> F  </i>
   <i type="logical" name="EVENONLYGW"> F  </i>
   <i type="int" name="NKREDLFX">     1</i>
   <i type="int" name="NKREDLFY">     1</i>
   <i type="int" name="NKREDLFZ">     1</i>
   <i type="int" name="MAXMEM">  2800</i>
   <i type="int" name="TELESCOPE">     0</i>
   <i type="int" name="TAUPAR">     1</i>
   <i type="int" name="OMEGAPAR">    -1</i>
   <i name="LAMBDA">      1.00000000</i>
  </separator>
  <separator name="External order field" >
   <i name="OFIELD_KAPPA">      0.00000000</i>
   <v name="OFIELD_K">      0.00000000      0.00000000      0.00000000</v>
   <i name="OFIELD_Q6_NEAR">      0.00000000</i>
   <i name="OFIELD_Q6_FAR">      0.00000000</i>
   <i name="OFIELD_A">      0.00000000</i>
  </separator>
 </parameters>
 <atominfo>
  <atoms>     144 </atoms>
  <types>       2 </types>
  <array name="atoms" >
   <dimension dim="1">ion</dimension>
   <field type="string">element</field>
   <field type="int">atomtype</field>
   <set>
    <rc><c>Ag</c><c>   1</c></rc>
    <rc><c>Ag</c><c>   1</c></rc>
    <rc><c>Ag</c><c>   1</c></rc>
    <rc><c>Ag</c><c>   1</c></rc>
    <rc><c>Ag</c><c>   1</c></rc>
    <rc><c>Ag</c><c>   1</c></rc>
    <rc><c>Ag</c><c>   1</c></rc>
    <rc><c>Ag</c><c>   1</c></rc>
    <rc><c>Ag</c><c>   1</c></rc>
    <rc><c>Ag</c><c>   1</c></rc>
    <rc><c>Ag</c><c>   1</c></rc>
    <rc><c>Ag</c><c>   1</c></rc>
    <rc><c>Ag</c><c>   1</c></rc>
    <rc><c>Ag</c><c>   1</c></rc>
    <rc><c>Ag</c><c>   1</c></rc>
    <rc><c>Ag</c><c>   1</c></rc>
    <rc><c>Ag</c><c>   1</c></rc>
    <rc><c>Ag</c><c>   1</c></rc>
    <rc><c>Ag</c><c>   1</c></rc>
    <rc><c>Ag</c><c>   1</c></rc>
    <rc><c>Ag</c><c>   1</c></rc>
    <rc><c>Ag</c><c>   1</c></rc>
    <rc><c>Ag</c><c>   1</c></rc>
    <rc><c>Ag</c><c>   1</c></rc>
    <rc><c>Ag</c><c>   1</c></rc>
    <rc><c>Ag</c><c>   1</c></rc>
    <rc><c>Ag</c><c>   1</c></rc>
    <rc><c>Ag</c><c>   1</c></rc>
    <rc><c>Ag</c><c>   1</c></rc>
    <rc><c>Ag</c><c>   1</c></rc>
    <rc><c>Ag</c><c>   1</c></rc>
    <rc><c>Ag</c><c>   1</c></rc>
    <rc><c>Ag</c><c>   1</c></rc>
    <rc><c>Ag</c><c>   1</c></rc>
    <rc><c>Ag</c><c>   1</c></rc>
    <rc><c>Ag</c><c>   1</c></rc>
    <rc><c>Ag</c><c>   1</c></rc>
    <rc><c>Ag</c><c>   1</c></rc>
    <rc><c>Ag</c><c>   1</c></rc>
    <rc><c>Ag</c><c>   1</c></rc>
    <rc><c>Ag</c><c>   1</c></rc>
    <rc><c>Ag</c><c>   1</c></rc>
    <rc><c>Ag</c><c>   1</c></rc>
    <rc><c>Ag</c><c>   1</c></rc>
    <rc><c>Ag</c><c>   1</c></rc>
    <rc><c>Ag</c><c>   1</c></rc>
    <rc><c>Ag</c><c>   1</c></rc>
    <rc><c>Ag</c><c>   1</c></rc>
    <rc><c>Ag</c><c>   1</c></rc>
    <rc><c>Ag</c><c>   1</c></rc>
    <rc><c>Ag</c><c>   1</c></rc>
    <rc><c>Ag</c><c>   1</c></rc>
    <rc><c>Ag</c><c>   1</c></rc>
    <rc><c>Ag</c><c>   1</c></rc>
    <rc><c>Ag</c><c>   1</c></rc>
    <rc><c>Ag</c><c>   1</c></rc>
    <rc><c>Ag</c><c>   1</c></rc>
    <rc><c>Ag</c><c>   1</c></rc>
    <rc><c>Ag</c><c>   1</c></rc>
    <rc><c>Ag</c><c>   1</c></rc>
    <rc><c>Ag</c><c>   1</c></rc>
    <rc><c>Ag</c><c>   1</c></rc>
    <rc><c>Ag</c><c>   1</c></rc>
    <rc><c>Ag</c><c>   1</c></rc>
    <rc><c>Ag</c><c>   1</c></rc>
    <rc><c>Ag</c><c>   1</c></rc>
    <rc><c>Ag</c><c>   1</c></rc>
    <rc><c>Ag</c><c>   1</c></rc>
    <rc><c>Ag</c><c>   1</c></rc>
    <rc><c>Ag</c><c>   1</c></rc>
    <rc><c>Ag</c><c>   1</c></rc>
    <rc><c>Ag</c><c>   1</c></rc>
    <rc><c>Ag</c><c>   1</c></rc>
    <rc><c>Ag</c><c>   1</c></rc>
    <rc><c>Ag</c><c>   1</c></rc>
    <rc><c>Ag</c><c>   1</c></rc>
    <rc><c>Ag</c><c>   1</c></rc>
    <rc><c>Ag</c><c>   1</c></rc>
    <rc><c>Ag</c><c>   1</c></rc>
    <rc><c>Ag</c><c>   1</c></rc>
    <rc><c>Ag</c><c>   1</c></rc>
    <rc><c>Ag</c><c>   1</c></rc>
    <rc><c>Ag</c><c>   1</c></rc>
    <rc><c>Ag</c><c>   1</c></rc>
    <rc><c>Ag</c><c>   1</c></rc>
    <rc><c>Ag</c><c>   1</c></rc>
    <rc><c>Ag</c><c>   1</c></rc>
    <rc><c>Ag</c><c>   1</c></rc>
    <rc><c>Ag</c><c>   1</c></rc>
    <rc><c>Ag</c><c>   1</c></rc>
    <rc><c>Ag</c><c>   1</c></rc>
    <rc><c>Ag</c><c>   1</c></rc>
    <rc><c>Ag</c><c>   1</c></rc>
    <rc><c>Ag</c><c>   1</c></rc>
    <rc><c>Ag</c><c>   1</c></rc>
    <rc><c>Ag</c><c>   1</c></rc>
    <rc><c>Se</c><c>   2</c></rc>
    <rc><c>Se</c><c>   2</c></rc>
    <rc><c>Se</c><c>   2</c></rc>
    <rc><c>Se</c><c>   2</c></rc>
    <rc><c>Se</c><c>   2</c></rc>
    <rc><c>Se</c><c>   2</c></rc>
    <rc><c>Se</c><c>   2</c></rc>
    <rc><c>Se</c><c>   2</c></rc>
    <rc><c>Se</c><c>   2</c></rc>
    <rc><c>Se</c><c>   2</c></rc>
    <rc><c>Se</c><c>   2</c></rc>
    <rc><c>Se</c><c>   2</c></rc>
    <rc><c>Se</c><c>   2</c></rc>
    <rc><c>Se</c><c>   2</c></rc>
    <rc><c>Se</c><c>   2</c></rc>
    <rc><c>Se</c><c>   2</c></rc>
    <rc><c>Se</c><c>   2</c></rc>
    <rc><c>Se</c><c>   2</c></rc>
    <rc><c>Se</c><c>   2</c></rc>
    <rc><c>Se</c><c>   2</c></rc>
    <rc><c>Se</c><c>   2</c></rc>
    <rc><c>Se</c><c>   2</c></rc>
    <rc><c>Se</c><c>   2</c></rc>
    <rc><c>Se</c><c>   2</c></rc>
    <rc><c>Se</c><c>   2</c></rc>
    <rc><c>Se</c><c>   2</c></rc>
    <rc><c>Se</c><c>   2</c></rc>
    <rc><c>Se</c><c>   2</c></rc>
    <rc><c>Se</c><c>   2</c></rc>
    <rc><c>Se</c><c>   2</c></rc>
    <rc><c>Se</c><c>   2</c></rc>
    <rc><c>Se</c><c>   2</c></rc>
    <rc><c>Se</c><c>   2</c></rc>
    <rc><c>Se</c><c>   2</c></rc>
    <rc><c>Se</c><c>   2</c></rc>
    <rc><c>Se</c><c>   2</c></rc>
    <rc><c>Se</c><c>   2</c></rc>
    <rc><c>Se</c><c>   2</c></rc>
    <rc><c>Se</c><c>   2</c></rc>
    <rc><c>Se</c><c>   2</c></rc>
    <rc><c>Se</c><c>   2</c></rc>
    <rc><c>Se</c><c>   2</c></rc>
    <rc><c>Se</c><c>   2</c></rc>
    <rc><c>Se</c><c>   2</c></rc>
    <rc><c>Se</c><c>   2</c></rc>
    <rc><c>Se</c><c>   2</c></rc>
    <rc><c>Se</c><c>   2</c></rc>
    <rc><c>Se</c><c>   2</c></rc>
   </set>
  </array>
  <array name="atomtypes" >
   <dimension dim="1">type</dimension>
   <field type="int">atomspertype</field>
   <field type="string">element</field>
   <field>mass</field>
   <field>valence</field>
   <field type="string">pseudopotential</field>
   <set>
    <rc><c>  96</c><c>Ag</c><c>    107.86800000</c><c>     11.00000000</c><c>  PAW_PBE Ag 02Apr2005                  </c></rc>
    <rc><c>  48</c><c>Se</c><c>     78.96000000</c><c>      6.00000000</c><c>  PAW_PBE Se 06Sep2000                  </c></rc>
   </set>
  </array>
 </atominfo>
 <structure name="initialpos" >
  <crystal>
   <varray name="basis" >
    <v>      14.01039598       0.00139138       0.00000000 </v>
    <v>      -0.00150196      13.76691092       0.00000000 </v>
    <v>       0.00000000       0.00000000      14.55019386 </v>
   </varray>
   <i name="volume">   2806.43958022 </i>
   <varray name="rec_basis" >
    <v>       0.07137557       0.00000779       0.00000000 </v>
    <v>      -0.00000721       0.07263794       0.00000000 </v>
    <v>       0.00000000       0.00000000       0.06872761 </v>
   </varray>
  </crystal>
  <varray name="positions" >
   <v>       0.42987898       0.17167077       0.33247735 </v>
   <v>       0.92987898       0.17167077       0.33247735 </v>
   <v>       0.42987898       0.67167077       0.33247735 </v>
   <v>       0.92987898       0.67167077       0.33247735 </v>
   <v>       0.42987898       0.17167077       0.66581068 </v>
   <v>       0.92987898       0.17167077       0.66581068 </v>
   <v>       0.42987898       0.67167077       0.66581068 </v>
   <v>       0.92987898       0.67167077       0.66581068 </v>
   <v>       0.42987898       0.17167077       0.99914401 </v>
   <v>       0.92987898       0.17167077       0.99914401 </v>
   <v>       0.42987898       0.67167077       0.99914401 </v>
   <v>       0.92987898       0.67167077       0.99914401 </v>
   <v>       0.07012102       0.32832923       0.33247735 </v>
   <v>       0.57012102       0.32832923       0.33247735 </v>
   <v>       0.07012102       0.82832923       0.33247735 </v>
   <v>       0.57012102       0.82832923       0.33247735 </v>
   <v>       0.07012102       0.32832923       0.66581068 </v>
   <v>       0.57012102       0.32832923       0.66581068 </v>
   <v>       0.07012102       0.82832923       0.66581068 </v>
   <v>       0.57012102       0.82832923       0.66581068 </v>
   <v>       0.07012102       0.32832923       0.99914401 </v>
   <v>       0.57012102       0.32832923       0.99914401 </v>
   <v>       0.07012102       0.82832923       0.99914401 </v>
   <v>       0.57012102       0.82832923       0.99914401 </v>
   <v>       0.32012053       0.42167367       0.05572347 </v>
   <v>       0.82012053       0.42167367       0.05641075 </v>
   <v>       0.32012053       0.92167367       0.05641075 </v>
   <v>       0.82012053       0.92167367       0.05641075 </v>
   <v>       0.32012053       0.42167367       0.38974408 </v>
   <v>       0.82012053       0.42167367       0.38974408 </v>
   <v>       0.32012053       0.92167367       0.38974408 </v>
   <v>       0.82012053       0.92167367       0.38974408 </v>
   <v>       0.32012053       0.42167367       0.72307741 </v>
   <v>       0.82012053       0.42167367       0.72307741 </v>
   <v>       0.32012053       0.92167367       0.72307741 </v>
   <v>       0.82012053       0.92167367       0.72307741 </v>
   <v>       0.17987947       0.07832633       0.05641075 </v>
   <v>       0.67987947       0.07832633       0.05641075 </v>
   <v>       0.17987947       0.57832633       0.05641075 </v>
   <v>       0.67987947       0.57832633       0.05641075 </v>
   <v>       0.17987947       0.07832633       0.38974408 </v>
   <v>       0.67987947       0.07832633       0.38974408 </v>
   <v>       0.17987947       0.57832633       0.38974408 </v>
   <v>       0.67987947       0.57832633       0.38974408 </v>
   <v>       0.17987947       0.07832633       0.72307741 </v>
   <v>       0.67987947       0.07832633       0.72307741 </v>
   <v>       0.17987947       0.57832633       0.72307741 </v>
   <v>       0.67987947       0.57832633       0.72307741 </v>
   <v>       0.17987776       0.32832369       0.16580856 </v>
   <v>       0.67987776       0.32832369       0.16580856 </v>
   <v>       0.17987776       0.82832369       0.16580856 </v>
   <v>       0.67987776       0.82832369       0.16580856 </v>
   <v>       0.17987776       0.32832369       0.49914189 </v>
   <v>       0.67987776       0.32832369       0.49914189 </v>
   <v>       0.17987776       0.82832369       0.49914189 </v>
   <v>       0.67987776       0.82832369       0.49914189 </v>
   <v>       0.17987776       0.32832369       0.83247522 </v>
   <v>       0.67987776       0.32832369       0.83247522 </v>
   <v>       0.17987776       0.82832369       0.83247522 </v>
   <v>       0.67987776       0.82832369       0.83247522 </v>
   <v>       0.32012224       0.17167631       0.16580856 </v>
   <v>       0.82012224       0.17167631       0.16580856 </v>
   <v>       0.32012224       0.67167631       0.16580856 </v>
   <v>       0.82012224       0.67167631       0.16580856 </v>
   <v>       0.32012224       0.17167631       0.49914189 </v>
   <v>       0.82012224       0.17167631       0.49914189 </v>
   <v>       0.32012224       0.67167631       0.49914189 </v>
   <v>       0.82012224       0.67167631       0.49914189 </v>
   <v>       0.32012224       0.17167631       0.83247522 </v>
   <v>       0.82012224       0.17167631       0.83247522 </v>
   <v>       0.32012224       0.67167631       0.83247522 </v>
   <v>       0.82012224       0.67167631       0.83247522 </v>
   <v>       0.42987656       0.42167494       0.22308000 </v>
   <v>       0.92987656       0.42167494       0.22308000 </v>
   <v>       0.42987656       0.92167494       0.22308000 </v>
   <v>       0.92987656       0.92167494       0.22308000 </v>
   <v>       0.42987656       0.42167494       0.55641333 </v>
   <v>       0.92987656       0.42167494       0.55641333 </v>
   <v>       0.42987656       0.92167494       0.55641333 </v>
   <v>       0.92987656       0.92167494       0.55641333 </v>
   <v>       0.42987656       0.42167494       0.88974666 </v>
   <v>       0.92987656       0.42167494       0.88974666 </v>
   <v>       0.42987656       0.92167494       0.88974666 </v>
   <v>       0.92987656       0.92167494       0.88974666 </v>
   <v>       0.07012344       0.07832506       0.22308000 </v>
   <v>       0.57012344       0.07832506       0.22308000 </v>
   <v>       0.07012344       0.57832506       0.22308000 </v>
   <v>       0.57012344       0.57832506       0.22308000 </v>
   <v>       0.07012344       0.07832506       0.55641333 </v>
   <v>       0.57012344       0.07832506       0.55641333 </v>
   <v>       0.07012344       0.57832506       0.55641333 </v>
   <v>       0.57012344       0.57832506       0.55641333 </v>
   <v>       0.07012344       0.07832506       0.88974666 </v>
   <v>       0.57012344       0.07832506       0.88974666 </v>
   <v>       0.07012344       0.57832506       0.88974666 </v>
   <v>       0.57012344       0.57832506       0.88974666 </v>
   <v>       0.00000000       0.00000000       0.05479365 </v>
   <v>       0.50000000       0.00000000       0.05479365 </v>
   <v>       0.00000000       0.50000000       0.05479365 </v>
   <v>       0.50000000       0.50000000       0.05479365 </v>
   <v>       0.00000000       0.00000000       0.38812698 </v>
   <v>       0.50000000       0.00000000       0.38812698 </v>
   <v>       0.00000000       0.50000000       0.38812698 </v>
   <v>       0.50000000       0.50000000       0.38812698 </v>
   <v>       0.00000000       0.00000000       0.72146032 </v>
   <v>       0.50000000       0.00000000       0.72146032 </v>
   <v>       0.00000000       0.50000000       0.72146032 </v>
   <v>       0.50000000       0.50000000       0.72146032 </v>
   <v>       0.25000000       0.00000000       0.22145206 </v>
   <v>       0.75000000       0.00000000       0.22145206 </v>
   <v>       0.25000000       0.50000000       0.22145206 </v>
   <v>       0.75000000       0.50000000       0.22145206 </v>
   <v>       0.25000000       0.00000000       0.55478539 </v>
   <v>       0.75000000       0.00000000       0.55478539 </v>
   <v>       0.25000000       0.50000000       0.55478539 </v>
   <v>       0.75000000       0.50000000       0.55478539 </v>
   <v>       0.25000000       0.00000000       0.88811873 </v>
   <v>       0.75000000       0.00000000       0.88811873 </v>
   <v>       0.25000000       0.50000000       0.88811873 </v>
   <v>       0.75000000       0.50000000       0.88811873 </v>
   <v>       0.00000000       0.25000000       0.16743769 </v>
   <v>       0.50000000       0.25000000       0.16743769 </v>
   <v>       0.00000000       0.75000000       0.16743769 </v>
   <v>       0.50000000       0.75000000       0.16743769 </v>
   <v>       0.00000000       0.25000000       0.50077102 </v>
   <v>       0.50000000       0.25000000       0.50077102 </v>
   <v>       0.00000000       0.75000000       0.50077102 </v>
   <v>       0.50000000       0.75000000       0.50077102 </v>
   <v>       0.00000000       0.25000000       0.83410435 </v>
   <v>       0.50000000       0.25000000       0.83410435 </v>
   <v>       0.00000000       0.75000000       0.83410435 </v>
   <v>       0.50000000       0.75000000       0.83410435 </v>
   <v>       0.25000000       0.25000000       0.00076332 </v>
   <v>       0.75000000       0.25000000       0.00076332 </v>
   <v>       0.25000000       0.75000000       0.00076332 </v>
   <v>       0.75000000       0.75000000       0.00076332 </v>
   <v>       0.25000000       0.25000000       0.33409665 </v>
   <v>       0.75000000       0.25000000       0.33409665 </v>
   <v>       0.25000000       0.75000000       0.33409665 </v>
   <v>       0.75000000       0.75000000       0.33409665 </v>
   <v>       0.25000000       0.25000000       0.66742999 </v>
   <v>       0.75000000       0.25000000       0.66742999 </v>
   <v>       0.25000000       0.75000000       0.66742999 </v>
   <v>       0.75000000       0.75000000       0.66742999 </v>
  </varray>
 </structure>
 <calculation>
  <scstep>
   <time name="dav">  938.66  940.88</time>
   <time name="total">  942.04  944.28</time>
   <energy>
    <i name="alphaZ">   4890.97834259 </i>
    <i name="ewald"> -98843.46031850 </i>
    <i name="hartreedc"> -25788.82932922 </i>
    <i name="XCdc">   -889.86290421 </i>
    <i name="pawpsdc"> 106286.73805879 </i>
    <i name="pawaedc">-101298.59693205 </i>
    <i name="eentropy">     -0.04292466 </i>
    <i name="bandstr">  14366.16131661 </i>
    <i name="atom"> 111881.97810035 </i>
    <i name="e_fr_energy">  10605.06340970 </i>
    <i name="e_wo_entrp">  10605.10633436 </i>
    <i name="e_0_energy">  10605.08487203 </i>
   </energy>
  </scstep>
  <scstep>
   <time name="dav">  973.73  976.03</time>
   <time name="total">  973.74  976.04</time>
   <energy>
    <i name="e_fr_energy">    151.47403871 </i>
    <i name="e_wo_entrp">    151.48723277 </i>
    <i name="e_0_energy">    151.48063574 </i>
   </energy>
  </scstep>
  <scstep>
   <time name="dav"> 1043.45 1045.94</time>
   <time name="total"> 1043.46 1045.94</time>
   <energy>
    <i name="e_fr_energy">   -517.89619955 </i>
    <i name="e_wo_entrp">   -517.89008248 </i>
    <i name="e_0_energy">   -517.89314101 </i>
   </energy>
  </scstep>
  <scstep>
   <time name="dav"> 1019.10 1021.55</time>
   <time name="total"> 1019.11 1021.56</time>
   <energy>
    <i name="e_fr_energy">   -535.41509542 </i>
    <i name="e_wo_entrp">   -535.40964273 </i>
    <i name="e_0_energy">   -535.41236907 </i>
   </energy>
  </scstep>
  <scstep>
   <time name="dav"> 1014.71 1017.17</time>
   <time name="total"> 1029.43 1031.93</time>
   <energy>
    <i name="e_fr_energy">   -535.67043138 </i>
    <i name="e_wo_entrp">   -535.66497057 </i>
    <i name="e_0_energy">   -535.66770097 </i>
   </energy>
  </scstep>
  <scstep>
   <time name="dav">  989.61  991.96</time>
   <time name="total"> 1007.30 1009.70</time>
   <energy>
    <i name="e_fr_energy">   -504.98315425 </i>
    <i name="e_wo_entrp">   -504.96767519 </i>
    <i name="e_0_energy">   -504.97541472 </i>
   </energy>
  </scstep>
  <scstep>
   <time name="dav">  979.27  981.61</time>
   <time name="total">  996.90  999.28</time>
   <energy>
    <i name="e_fr_energy">   -505.65759808 </i>
    <i name="e_wo_entrp">   -505.64184555 </i>
    <i name="e_0_energy">   -505.64972181 </i>
   </energy>
  </scstep>
  <scstep>
   <time name="dav">  992.95  995.31</time>
   <time name="total"> 1010.51 1012.91</time>
   <energy>
    <i name="e_fr_energy">   -505.18196287 </i>
    <i name="e_wo_entrp">   -505.16735784 </i>
    <i name="e_0_energy">   -505.17466035 </i>
   </energy>
  </scstep>
  <scstep>
   <time name="dav">  978.93  981.24</time>
   <time name="total">  997.24  999.60</time>
   <energy>
    <i name="e_fr_energy">   -505.12626994 </i>
    <i name="e_wo_entrp">   -505.11105296 </i>
    <i name="e_0_energy">   -505.11866145 </i>
   </energy>
  </scstep>
  <scstep>
   <time name="dav">  981.95  984.31</time>
   <time name="total"> 1000.61 1003.03</time>
   <energy>
    <i name="e_fr_energy">   -505.12840062 </i>
    <i name="e_wo_entrp">   -505.11312573 </i>
    <i name="e_0_energy">   -505.12076317 </i>
   </energy>
  </scstep>
  <scstep>
   <time name="dav"> 1012.64 1015.06</time>
   <time name="total"> 1031.70 1034.17</time>
   <energy>
    <i name="e_fr_energy">   -505.12827471 </i>
    <i name="e_wo_entrp">   -505.11306811 </i>
    <i name="e_0_energy">   -505.12067141 </i>
   </energy>
  </scstep>
  <scstep>
   <time name="dav">  987.12  989.49</time>
   <time name="total"> 1007.17 1009.58</time>
   <energy>
    <i name="e_fr_energy">   -505.12823260 </i>
    <i name="e_wo_entrp">   -505.11300576 </i>
    <i name="e_0_energy">   -505.12061918 </i>
   </energy>
  </scstep>
  <scstep>
   <time name="dav"> 1036.25 1038.71</time>
   <time name="total"> 1054.82 1057.32</time>
   <energy>
    <i name="e_fr_energy">   -505.12823264 </i>
    <i name="e_wo_entrp">   -505.11300869 </i>
    <i name="e_0_energy">   -505.12062067 </i>
   </energy>
  </scstep>
  <scstep>
   <time name="dav">  974.12  976.45</time>
   <time name="total">  992.33  994.70</time>
   <energy>
    <i name="e_fr_energy">   -505.12823152 </i>
    <i name="e_wo_entrp">   -505.11300869 </i>
    <i name="e_0_energy">   -505.12062010 </i>
   </energy>
  </scstep>
  <scstep>
   <time name="dav">  996.63  998.99</time>
   <time name="total"> 1014.59 1016.99</time>
   <energy>
    <i name="e_fr_energy">   -505.12823002 </i>
    <i name="e_wo_entrp">   -505.11300739 </i>
    <i name="e_0_energy">   -505.12061871 </i>
   </energy>
  </scstep>
  <scstep>
   <time name="dav">  901.39  903.52</time>
   <time name="total">  919.03  921.20</time>
   <energy>
    <i name="e_fr_energy">   -505.12823000 </i>
    <i name="e_wo_entrp">   -505.11300758 </i>
    <i name="e_0_energy">   -505.12061879 </i>
   </energy>
  </scstep>
  <scstep>
   <time name="dav">  602.75  604.21</time>
   <time name="total">  620.73  622.23</time>
   <energy>
    <i name="e_fr_energy">   -505.12823002 </i>
    <i name="e_wo_entrp">   -505.11300754 </i>
    <i name="e_0_energy">   -505.12061878 </i>
   </energy>
  </scstep>
  <scstep>
   <time name="dav">  590.81  592.21</time>
   <time name="total">  608.61  610.06</time>
   <energy>
    <i name="e_fr_energy">   -505.12823001 </i>
    <i name="e_wo_entrp">   -505.11300749 </i>
    <i name="e_0_energy">   -505.12061875 </i>
   </energy>
  </scstep>
  <scstep>
   <time name="dav">  586.91  588.32</time>
   <time name="total">  590.34  591.76</time>
   <energy>
    <i name="alphaZ">   4890.97834259 </i>
    <i name="ewald"> -98843.46031850 </i>
    <i name="hartreedc"> -24657.66988937 </i>
    <i name="XCdc">   -922.44902462 </i>
    <i name="pawpsdc"> 122252.55115522 </i>
    <i name="pawaedc">-117444.80651705 </i>
    <i name="eentropy">     -0.01522253 </i>
    <i name="bandstr">   2337.76514390 </i>
    <i name="atom"> 111881.97810035 </i>
    <i name="e_fr_energy">   -505.12823001 </i>
    <i name="e_wo_entrp">   -505.11300748 </i>
    <i name="e_0_energy">   -505.12061874 </i>
   </energy>
  </scstep>
  <structure>
   <crystal>
    <varray name="basis" >
     <v>      14.01039598       0.00139138       0.00000000 </v>
     <v>      -0.00150196      13.76691092       0.00000000 </v>
     <v>       0.00000000       0.00000000      14.55019386 </v>
    </varray>
    <i name="volume">   2806.43958022 </i>
    <varray name="rec_basis" >
     <v>       0.07137557       0.00000779       0.00000000 </v>
     <v>      -0.00000721       0.07263794       0.00000000 </v>
     <v>       0.00000000       0.00000000       0.06872761 </v>
    </varray>
   </crystal>
   <varray name="positions" >
    <v>       0.42987898       0.17167077       0.33247735 </v>
    <v>       0.92987898       0.17167077       0.33247735 </v>
    <v>       0.42987898       0.67167077       0.33247735 </v>
    <v>       0.92987898       0.67167077       0.33247735 </v>
    <v>       0.42987898       0.17167077       0.66581068 </v>
    <v>       0.92987898       0.17167077       0.66581068 </v>
    <v>       0.42987898       0.67167077       0.66581068 </v>
    <v>       0.92987898       0.67167077       0.66581068 </v>
    <v>       0.42987898       0.17167077       0.99914401 </v>
    <v>       0.92987898       0.17167077       0.99914401 </v>
    <v>       0.42987898       0.67167077       0.99914401 </v>
    <v>       0.92987898       0.67167077       0.99914401 </v>
    <v>       0.07012102       0.32832923       0.33247735 </v>
    <v>       0.57012102       0.32832923       0.33247735 </v>
    <v>       0.07012102       0.82832923       0.33247735 </v>
    <v>       0.57012102       0.82832923       0.33247735 </v>
    <v>       0.07012102       0.32832923       0.66581068 </v>
    <v>       0.57012102       0.32832923       0.66581068 </v>
    <v>       0.07012102       0.82832923       0.66581068 </v>
    <v>       0.57012102       0.82832923       0.66581068 </v>
    <v>       0.07012102       0.32832923       0.99914401 </v>
    <v>       0.57012102       0.32832923       0.99914401 </v>
    <v>       0.07012102       0.82832923       0.99914401 </v>
    <v>       0.57012102       0.82832923       0.99914401 </v>
    <v>       0.32012053       0.42167367       0.05572347 </v>
    <v>       0.82012053       0.42167367       0.05641075 </v>
    <v>       0.32012053       0.92167367       0.05641075 </v>
    <v>       0.82012053       0.92167367       0.05641075 </v>
    <v>       0.32012053       0.42167367       0.38974408 </v>
    <v>       0.82012053       0.42167367       0.38974408 </v>
    <v>       0.32012053       0.92167367       0.38974408 </v>
    <v>       0.82012053       0.92167367       0.38974408 </v>
    <v>       0.32012053       0.42167367       0.72307741 </v>
    <v>       0.82012053       0.42167367       0.72307741 </v>
    <v>       0.32012053       0.92167367       0.72307741 </v>
    <v>       0.82012053       0.92167367       0.72307741 </v>
    <v>       0.17987947       0.07832633       0.05641075 </v>
    <v>       0.67987947       0.07832633       0.05641075 </v>
    <v>       0.17987947       0.57832633       0.05641075 </v>
    <v>       0.67987947       0.57832633       0.05641075 </v>
    <v>       0.17987947       0.07832633       0.38974408 </v>
    <v>       0.67987947       0.07832633       0.38974408 </v>
    <v>       0.17987947       0.57832633       0.38974408 </v>
    <v>       0.67987947       0.57832633       0.38974408 </v>
    <v>       0.17987947       0.07832633       0.72307741 </v>
    <v>       0.67987947       0.07832633       0.72307741 </v>
    <v>       0.17987947       0.57832633       0.72307741 </v>
    <v>       0.67987947       0.57832633       0.72307741 </v>
    <v>       0.17987776       0.32832369       0.16580856 </v>
    <v>       0.67987776       0.32832369       0.16580856 </v>
    <v>       0.17987776       0.82832369       0.16580856 </v>
    <v>       0.67987776       0.82832369       0.16580856 </v>
    <v>       0.17987776       0.32832369       0.49914189 </v>
    <v>       0.67987776       0.32832369       0.49914189 </v>
    <v>       0.17987776       0.82832369       0.49914189 </v>
    <v>       0.67987776       0.82832369       0.49914189 </v>
    <v>       0.17987776       0.32832369       0.83247522 </v>
    <v>       0.67987776       0.32832369       0.83247522 </v>
    <v>       0.17987776       0.82832369       0.83247522 </v>
    <v>       0.67987776       0.82832369       0.83247522 </v>
    <v>       0.32012224       0.17167631       0.16580856 </v>
    <v>       0.82012224       0.17167631       0.16580856 </v>
    <v>       0.32012224       0.67167631       0.16580856 </v>
    <v>       0.82012224       0.67167631       0.16580856 </v>
    <v>       0.32012224       0.17167631       0.49914189 </v>
    <v>       0.82012224       0.17167631       0.49914189 </v>
    <v>       0.32012224       0.67167631       0.49914189 </v>
    <v>       0.82012224       0.67167631       0.49914189 </v>
    <v>       0.32012224       0.17167631       0.83247522 </v>
    <v>       0.82012224       0.17167631       0.83247522 </v>
    <v>       0.32012224       0.67167631       0.83247522 </v>
    <v>       0.82012224       0.67167631       0.83247522 </v>
    <v>       0.42987656       0.42167494       0.22308000 </v>
    <v>       0.92987656       0.42167494       0.22308000 </v>
    <v>       0.42987656       0.92167494       0.22308000 </v>
    <v>       0.92987656       0.92167494       0.22308000 </v>
    <v>       0.42987656       0.42167494       0.55641333 </v>
    <v>       0.92987656       0.42167494       0.55641333 </v>
    <v>       0.42987656       0.92167494       0.55641333 </v>
    <v>       0.92987656       0.92167494       0.55641333 </v>
    <v>       0.42987656       0.42167494       0.88974666 </v>
    <v>       0.92987656       0.42167494       0.88974666 </v>
    <v>       0.42987656       0.92167494       0.88974666 </v>
    <v>       0.92987656       0.92167494       0.88974666 </v>
    <v>       0.07012344       0.07832506       0.22308000 </v>
    <v>       0.57012344       0.07832506       0.22308000 </v>
    <v>       0.07012344       0.57832506       0.22308000 </v>
    <v>       0.57012344       0.57832506       0.22308000 </v>
    <v>       0.07012344       0.07832506       0.55641333 </v>
    <v>       0.57012344       0.07832506       0.55641333 </v>
    <v>       0.07012344       0.57832506       0.55641333 </v>
    <v>       0.57012344       0.57832506       0.55641333 </v>
    <v>       0.07012344       0.07832506       0.88974666 </v>
    <v>       0.57012344       0.07832506       0.88974666 </v>
    <v>       0.07012344       0.57832506       0.88974666 </v>
    <v>       0.57012344       0.57832506       0.88974666 </v>
    <v>       0.00000000       0.00000000       0.05479365 </v>
    <v>       0.50000000       0.00000000       0.05479365 </v>
    <v>       0.00000000       0.50000000       0.05479365 </v>
    <v>       0.50000000       0.50000000       0.05479365 </v>
    <v>       0.00000000       0.00000000       0.38812698 </v>
    <v>       0.50000000       0.00000000       0.38812698 </v>
    <v>       0.00000000       0.50000000       0.38812698 </v>
    <v>       0.50000000       0.50000000       0.38812698 </v>
    <v>       0.00000000       0.00000000       0.72146032 </v>
    <v>       0.50000000       0.00000000       0.72146032 </v>
    <v>       0.00000000       0.50000000       0.72146032 </v>
    <v>       0.50000000       0.50000000       0.72146032 </v>
    <v>       0.25000000       0.00000000       0.22145206 </v>
    <v>       0.75000000       0.00000000       0.22145206 </v>
    <v>       0.25000000       0.50000000       0.22145206 </v>
    <v>       0.75000000       0.50000000       0.22145206 </v>
    <v>       0.25000000       0.00000000       0.55478539 </v>
    <v>       0.75000000       0.00000000       0.55478539 </v>
    <v>       0.25000000       0.50000000       0.55478539 </v>
    <v>       0.75000000       0.50000000       0.55478539 </v>
    <v>       0.25000000       0.00000000       0.88811873 </v>
    <v>       0.75000000       0.00000000       0.88811873 </v>
    <v>       0.25000000       0.50000000       0.88811873 </v>
    <v>       0.75000000       0.50000000       0.88811873 </v>
    <v>       0.00000000       0.25000000       0.16743769 </v>
    <v>       0.50000000       0.25000000       0.16743769 </v>
    <v>       0.00000000       0.75000000       0.16743769 </v>
    <v>       0.50000000       0.75000000       0.16743769 </v>
    <v>       0.00000000       0.25000000       0.50077102 </v>
    <v>       0.50000000       0.25000000       0.50077102 </v>
    <v>       0.00000000       0.75000000       0.50077102 </v>
    <v>       0.50000000       0.75000000       0.50077102 </v>
    <v>       0.00000000       0.25000000       0.83410435 </v>
    <v>       0.50000000       0.25000000       0.83410435 </v>
    <v>       0.00000000       0.75000000       0.83410435 </v>
    <v>       0.50000000       0.75000000       0.83410435 </v>
    <v>       0.25000000       0.25000000       0.00076332 </v>
    <v>       0.75000000       0.25000000       0.00076332 </v>
    <v>       0.25000000       0.75000000       0.00076332 </v>
    <v>       0.75000000       0.75000000       0.00076332 </v>
    <v>       0.25000000       0.25000000       0.33409665 </v>
    <v>       0.75000000       0.25000000       0.33409665 </v>
    <v>       0.25000000       0.75000000       0.33409665 </v>
    <v>       0.75000000       0.75000000       0.33409665 </v>
    <v>       0.25000000       0.25000000       0.66742999 </v>
    <v>       0.75000000       0.25000000       0.66742999 </v>
    <v>       0.25000000       0.75000000       0.66742999 </v>
    <v>       0.75000000       0.75000000       0.66742999 </v>
   </varray>
  </structure>
  <varray name="forces" >
   <v>      -0.00003149       0.00007184      -0.00001411 </v>
   <v>      -0.00003129       0.00006685      -0.00005379 </v>
   <v>      -0.00008452      -0.00001029      -0.00001395 </v>
   <v>       0.00001961      -0.00002249      -0.00005366 </v>
   <v>       0.00006062       0.00005526      -0.00006792 </v>
   <v>      -0.00001772       0.00006963      -0.00005602 </v>
   <v>      -0.00000673       0.00012448      -0.00006778 </v>
   <v>      -0.00004411       0.00013973      -0.00005619 </v>
   <v>       0.00032005      -0.00011839       0.00018278 </v>
   <v>       0.00002070       0.00006457      -0.00001375 </v>
   <v>       0.00002034       0.00025039       0.00018424 </v>
   <v>      -0.00003592       0.00008230      -0.00001320 </v>
   <v>       0.00001283      -0.00002525      -0.00003059 </v>
   <v>      -0.00003053       0.00005532      -0.00003095 </v>
   <v>       0.00006891      -0.00011498      -0.00004847 </v>
   <v>       0.00001162      -0.00004821      -0.00004870 </v>
   <v>      -0.00001201      -0.00006766      -0.00008632 </v>
   <v>       0.00003026      -0.00016535      -0.00008620 </v>
   <v>      -0.00001929      -0.00006035      -0.00003687 </v>
   <v>      -0.00000906      -0.00008109      -0.00003683 </v>
   <v>      -0.00024520      -0.00011245       0.00012056 </v>
   <v>       0.00011571      -0.00027667       0.00011938 </v>
   <v>      -0.00000698      -0.00006415      -0.00001680 </v>
   <v>       0.00003228      -0.00006601      -0.00001685 </v>
   <v>      -0.00201689       0.00386439       0.03732369 </v>
   <v>       0.00002874       0.00001940       0.00003067 </v>
   <v>       0.00008059       0.00004642       0.00006755 </v>
   <v>       0.00000045       0.00002011       0.00007112 </v>
   <v>      -0.00010681       0.00026003      -0.00062903 </v>
   <v>       0.00016156       0.00001827       0.00000310 </v>
   <v>       0.00001050      -0.00019329      -0.00000523 </v>
   <v>       0.00002824       0.00001155       0.00005907 </v>
   <v>       0.00019175      -0.00018018      -0.00063661 </v>
   <v>      -0.00008226      -0.00000129       0.00000397 </v>
   <v>       0.00006349       0.00005358      -0.00000474 </v>
   <v>       0.00000672       0.00002763       0.00005910 </v>
   <v>      -0.00018458      -0.00090032       0.00035429 </v>
   <v>       0.00001671      -0.00003926       0.00008744 </v>
   <v>       0.00022618      -0.00024619       0.00241249 </v>
   <v>       0.00008810      -0.00004801       0.00004477 </v>
   <v>      -0.00002155       0.00005353       0.00003182 </v>
   <v>      -0.00000942      -0.00002085       0.00005403 </v>
   <v>       0.00064490      -0.00088336      -0.00130143 </v>
   <v>      -0.00012051      -0.00004274       0.00002248 </v>
   <v>      -0.00001336      -0.00002874       0.00003180 </v>
   <v>      -0.00001029      -0.00002622       0.00005402 </v>
   <v>      -0.00075774       0.00064033      -0.00130926 </v>
   <v>       0.00006680      -0.00003705       0.00002339 </v>
   <v>       0.00683498       0.00582342      -0.00346020 </v>
   <v>      -0.00000966      -0.00003136       0.00000060 </v>
   <v>       0.00000660      -0.00003080       0.00010370 </v>
   <v>      -0.00003562       0.00000142      -0.00000380 </v>
   <v>       0.00001438       0.00003049      -0.00006049 </v>
   <v>      -0.00002457       0.00000979      -0.00005472 </v>
   <v>      -0.00000794       0.00004489      -0.00008185 </v>
   <v>      -0.00001138      -0.00000333      -0.00001787 </v>
   <v>      -0.00085198      -0.00087816      -0.00122861 </v>
   <v>       0.00007218      -0.00005128      -0.00006319 </v>
   <v>       0.00000188      -0.00002709       0.00001604 </v>
   <v>       0.00002003      -0.00000422      -0.00001550 </v>
   <v>       0.00004260      -0.00013739       0.00026344 </v>
   <v>       0.00009828       0.00001440       0.00002956 </v>
   <v>      -0.00011597      -0.00083643       0.00026454 </v>
   <v>       0.00002503       0.00002004       0.00002942 </v>
   <v>       0.00002237       0.00001136      -0.00009010 </v>
   <v>      -0.00001005      -0.00000551      -0.00003546 </v>
   <v>      -0.00003243      -0.00001117      -0.00008951 </v>
   <v>      -0.00001066      -0.00000287      -0.00003567 </v>
   <v>       0.00005132      -0.00017471      -0.00018036 </v>
   <v>      -0.00000946      -0.00000462      -0.00001305 </v>
   <v>       0.00014444       0.00066353      -0.00018072 </v>
   <v>      -0.00001466       0.00001871      -0.00001291 </v>
   <v>      -0.00762498       0.00069652      -0.01003292 </v>
   <v>       0.00010919      -0.00000287       0.00006519 </v>
   <v>       0.00001674       0.00002037       0.00003613 </v>
   <v>       0.00001173      -0.00002102       0.00002474 </v>
   <v>       0.00002319       0.00002215      -0.00021485 </v>
   <v>       0.00001883       0.00000782      -0.00010963 </v>
   <v>       0.00002268       0.00000857      -0.00000556 </v>
   <v>       0.00000702       0.00000618       0.00000029 </v>
   <v>       0.00802465      -0.00070411      -0.01047759 </v>
   <v>      -0.00002326       0.00002373       0.00006530 </v>
   <v>       0.00006334       0.00001662       0.00003600 </v>
   <v>       0.00000245       0.00003482       0.00002471 </v>
   <v>       0.00000785       0.00005572      -0.00000976 </v>
   <v>      -0.00002704       0.00008762       0.00001523 </v>
   <v>       0.00084825      -0.00006060       0.00015944 </v>
   <v>      -0.00018545      -0.00006372       0.00010498 </v>
   <v>      -0.00001390       0.00000332       0.00000071 </v>
   <v>      -0.00001110       0.00002062       0.00000070 </v>
   <v>       0.00000529      -0.00002806      -0.00027621 </v>
   <v>      -0.00000295      -0.00003592      -0.00027593 </v>
   <v>      -0.00004387      -0.00006669       0.00001494 </v>
   <v>       0.00000109      -0.00003599      -0.00001001 </v>
   <v>      -0.00052994       0.00010673       0.00010622 </v>
   <v>       0.00011344       0.00013201       0.00016112 </v>
   <v>       0.00003816      -0.00000457      -0.00013061 </v>
   <v>      -0.00006912      -0.00003133      -0.00013109 </v>
   <v>      -0.00009512       0.00002203      -0.00022880 </v>
   <v>      -0.00091727       0.00017040       0.00209820 </v>
   <v>      -0.00001776      -0.00002277      -0.00007872 </v>
   <v>      -0.00001790      -0.00002545      -0.00007629 </v>
   <v>      -0.00070330      -0.00026105       0.00014681 </v>
   <v>       0.00032900       0.00026059       0.00064739 </v>
   <v>       0.00001915      -0.00000725      -0.00006788 </v>
   <v>      -0.00004621       0.00000275      -0.00004731 </v>
   <v>       0.00056818       0.00015798       0.00016729 </v>
   <v>      -0.00037013      -0.00029191       0.00066952 </v>
   <v>      -0.00007220       0.00005834      -0.00021189 </v>
   <v>      -0.00004986       0.00000825      -0.00002317 </v>
   <v>       0.00278274      -0.00562047      -0.00774727 </v>
   <v>      -0.00020927       0.00008624      -0.00009918 </v>
   <v>      -0.00001282      -0.00004496       0.00017027 </v>
   <v>      -0.00001672       0.00001860       0.00002503 </v>
   <v>      -0.00001090       0.00001079       0.00043501 </v>
   <v>      -0.00000333       0.00001786       0.00030097 </v>
   <v>      -0.00008067       0.00023030       0.00022751 </v>
   <v>       0.00001545       0.00000757      -0.00000318 </v>
   <v>      -0.00386214       0.00318404      -0.00636523 </v>
   <v>       0.00006198      -0.00006555      -0.00006181 </v>
   <v>      -0.00024220      -0.00010516      -0.00017628 </v>
   <v>      -0.00048686       0.00032176       0.00001172 </v>
   <v>      -0.00010383       0.00003934      -0.00004346 </v>
   <v>       0.00017700      -0.00000710      -0.00007625 </v>
   <v>       0.00004002      -0.00004852       0.00004231 </v>
   <v>       0.00003746      -0.00002708       0.00003009 </v>
   <v>       0.00002659       0.00001909       0.00002173 </v>
   <v>       0.00000604       0.00005581       0.00012088 </v>
   <v>      -0.00005671       0.00000980       0.00003193 </v>
   <v>       0.00013760      -0.00051449      -0.00049039 </v>
   <v>       0.00009960      -0.00002020      -0.00005919 </v>
   <v>      -0.00000047       0.00002563      -0.00013519 </v>
   <v>      -0.00254991      -0.00504370      -0.00075483 </v>
   <v>      -0.00010627       0.00006817      -0.00000316 </v>
   <v>      -0.00006363      -0.00010847      -0.00026643 </v>
   <v>      -0.00002655       0.00000375       0.00001009 </v>
   <v>       0.00004829      -0.00006660      -0.00017484 </v>
   <v>       0.00003216       0.00001239       0.00007047 </v>
   <v>       0.00027680       0.00078778       0.00024446 </v>
   <v>       0.00002576       0.00000489       0.00006378 </v>
   <v>      -0.00003241       0.00008056       0.00018425 </v>
   <v>       0.00001802       0.00000914       0.00010962 </v>
   <v>       0.00004206      -0.00014811       0.00044563 </v>
   <v>      -0.00000084       0.00001320       0.00008447 </v>
  </varray>
  <varray name="stress" >
   <v>      -0.16932130       0.00020202      -0.00111996 </v>
   <v>       0.00020204      -0.14921153      -0.00185840 </v>
   <v>      -0.00111985      -0.00185852      -0.16008653 </v>
  </varray>
  <energy>
   <i name="e_fr_energy">   -505.12823001 </i>
   <i name="e_wo_entrp">   -505.12061874 </i>
   <i name="e_0_energy">     -0.01522253 </i>
  </energy>
  <time name="totalsc">19794.4019842.04</time>
  <eigenvalues>
   <array>
    <dimension dim="1">band</dimension>
    <dimension dim="2">kpoint</dimension>
    <dimension dim="3">spin</dimension>
    <field>eigene</field>
    <field>occ</field>
    <set>
     <set comment="spin 1">
      <set comment="kpoint 1">
       <r>   -7.4639    1.0000 </r>
       <r>   -7.2298    1.0000 </r>
       <r>   -7.2293    1.0000 </r>
       <r>   -7.2157    1.0000 </r>
       <r>   -7.2157    1.0000 </r>
       <r>   -7.1644    1.0000 </r>
       <r>   -7.1643    1.0000 </r>
       <r>   -7.0701    1.0000 </r>
       <r>   -7.0695    1.0000 </r>
       <r>   -7.0695    1.0000 </r>
       <r>   -7.0691    1.0000 </r>
       <r>   -7.0094    1.0000 </r>
       <r>   -7.0092    1.0000 </r>
       <r>   -7.0090    1.0000 </r>
       <r>   -7.0087    1.0000 </r>
       <r>   -6.9940    1.0000 </r>
       <r>   -6.9939    1.0000 </r>
       <r>   -6.9938    1.0000 </r>
       <r>   -6.9938    1.0000 </r>
       <r>   -6.9476    1.0000 </r>
       <r>   -6.9353    1.0000 </r>
       <r>   -6.9350    1.0000 </r>
       <r>   -6.9197    1.0000 </r>
       <r>   -6.9194    1.0000 </r>
       <r>   -6.9192    1.0000 </r>
       <r>   -6.9191    1.0000 </r>
       <r>   -6.9190    1.0000 </r>
       <r>   -6.9190    1.0000 </r>
       <r>   -6.9189    1.0000 </r>
       <r>   -6.9182    1.0000 </r>
       <r>   -6.8370    1.0000 </r>
       <r>   -6.8368    1.0000 </r>
       <r>   -6.8366    1.0000 </r>
       <r>   -6.8363    1.0000 </r>
       <r>   -6.8238    1.0000 </r>
       <r>   -6.8181    1.0000 </r>
       <r>   -6.8180    1.0000 </r>
       <r>   -6.7729    1.0000 </r>
       <r>   -6.7724    1.0000 </r>
       <r>   -6.7674    1.0000 </r>
       <r>   -6.7669    1.0000 </r>
       <r>   -6.7668    1.0000 </r>
       <r>   -6.7664    1.0000 </r>
       <r>   -6.7547    1.0000 </r>
       <r>   -6.7547    1.0000 </r>
       <r>   -6.7402    1.0000 </r>
       <r>   -6.7398    1.0000 </r>
       <r>   -6.6844    1.0000 </r>
       <r>   -0.3461    1.0000 </r>
       <r>    0.0936    1.0000 </r>
       <r>    0.0940    1.0000 </r>
       <r>    0.0941    1.0000 </r>
       <r>    0.0942    1.0000 </r>
       <r>    0.0944    1.0000 </r>
       <r>    0.0945    1.0000 </r>
       <r>    0.0945    1.0000 </r>
       <r>    0.0949    1.0000 </r>
       <r>    0.1075    1.0000 </r>
       <r>    0.1077    1.0000 </r>
       <r>    0.1080    1.0000 </r>
       <r>    0.1082    1.0000 </r>
       <r>    0.1521    1.0000 </r>
       <r>    0.1522    1.0000 </r>
       <r>    0.1523    1.0000 </r>
       <r>    0.1524    1.0000 </r>
       <r>    0.1581    1.0000 </r>
       <r>    0.1582    1.0000 </r>
       <r>    0.1596    1.0000 </r>
       <r>    0.1596    1.0000 </r>
       <r>    0.2007    1.0000 </r>
       <r>    0.2009    1.0000 </r>
       <r>    0.2010    1.0000 </r>
       <r>    0.2011    1.0000 </r>
       <r>    0.2368    1.0000 </r>
       <r>    0.2368    1.0000 </r>
       <r>    0.2565    1.0000 </r>
       <r>    0.2571    1.0000 </r>
       <r>    0.2821    1.0000 </r>
       <r>    0.3007    1.0000 </r>
       <r>    0.3010    1.0000 </r>
       <r>    0.3229    1.0000 </r>
       <r>    0.4472    1.0000 </r>
       <r>    0.4472    1.0000 </r>
       <r>    0.4508    1.0000 </r>
       <r>    0.4511    1.0000 </r>
       <r>    0.4572    1.0000 </r>
       <r>    0.4574    1.0000 </r>
       <r>    0.4654    1.0000 </r>
       <r>    0.4656    1.0000 </r>
       <r>    0.4659    1.0000 </r>
       <r>    0.4661    1.0000 </r>
       <r>    0.4699    1.0000 </r>
       <r>    0.4700    1.0000 </r>
       <r>    0.4702    1.0000 </r>
       <r>    0.4704    1.0000 </r>
       <r>    0.5112    1.0000 </r>
       <r>    0.5114    1.0000 </r>
       <r>    0.5259    1.0000 </r>
       <r>    0.5263    1.0000 </r>
       <r>    0.5264    1.0000 </r>
       <r>    0.5268    1.0000 </r>
       <r>    0.5971    1.0000 </r>
       <r>    0.6017    1.0000 </r>
       <r>    0.6548    1.0000 </r>
       <r>    0.6549    1.0000 </r>
       <r>    0.6552    1.0000 </r>
       <r>    0.6554    1.0000 </r>
       <r>    0.6615    1.0000 </r>
       <r>    0.6618    1.0000 </r>
       <r>    0.6878    1.0000 </r>
       <r>    0.6879    1.0000 </r>
       <r>    0.7017    1.0000 </r>
       <r>    0.7019    1.0000 </r>
       <r>    0.7020    1.0000 </r>
       <r>    0.7024    1.0000 </r>
       <r>    0.7206    1.0000 </r>
       <r>    0.7208    1.0000 </r>
       <r>    0.7409    1.0000 </r>
       <r>    0.7413    1.0000 </r>
       <r>    0.7485    1.0000 </r>
       <r>    0.8022    1.0000 </r>
       <r>    0.8140    1.0000 </r>
       <r>    0.8144    1.0000 </r>
       <r>    0.8145    1.0000 </r>
       <r>    0.8148    1.0000 </r>
       <r>    0.8302    1.0000 </r>
       <r>    0.8302    1.0000 </r>
       <r>    0.8305    1.0000 </r>
       <r>    0.8306    1.0000 </r>
       <r>    0.8513    1.0000 </r>
       <r>    0.8519    1.0000 </r>
       <r>    0.8520    1.0000 </r>
       <r>    0.8520    1.0000 </r>
       <r>    0.8521    1.0000 </r>
       <r>    0.8522    1.0000 </r>
       <r>    0.8522    1.0000 </r>
       <r>    0.8529    1.0000 </r>
       <r>    0.8952    1.0000 </r>
       <r>    0.8977    1.0000 </r>
       <r>    0.8979    1.0000 </r>
       <r>    0.8992    1.0000 </r>
       <r>    0.8993    1.0000 </r>
       <r>    0.8995    1.0000 </r>
       <r>    0.8997    1.0000 </r>
       <r>    0.9205    1.0000 </r>
       <r>    0.9459    1.0000 </r>
       <r>    0.9460    1.0000 </r>
       <r>    1.0706    1.0000 </r>
       <r>    1.0708    1.0000 </r>
       <r>    1.0709    1.0000 </r>
       <r>    1.0711    1.0000 </r>
       <r>    1.0843    1.0000 </r>
       <r>    1.0845    1.0000 </r>
       <r>    1.0848    1.0000 </r>
       <r>    1.0850    1.0000 </r>
       <r>    1.0851    1.0000 </r>
       <r>    1.0852    1.0000 </r>
       <r>    1.1008    1.0000 </r>
       <r>    1.1012    1.0000 </r>
       <r>    1.1458    1.0000 </r>
       <r>    1.1459    1.0000 </r>
       <r>    1.1460    1.0000 </r>
       <r>    1.1461    1.0000 </r>
       <r>    1.1618    1.0000 </r>
       <r>    1.1618    1.0000 </r>
       <r>    1.1619    1.0000 </r>
       <r>    1.1622    1.0000 </r>
       <r>    1.1757    1.0000 </r>
       <r>    1.1762    1.0000 </r>
       <r>    1.1998    1.0000 </r>
       <r>    1.2240    1.0000 </r>
       <r>    1.2243    1.0000 </r>
       <r>    1.2296    1.0000 </r>
       <r>    1.2297    1.0000 </r>
       <r>    1.2298    1.0000 </r>
       <r>    1.2299    1.0000 </r>
       <r>    1.2300    1.0000 </r>
       <r>    1.2301    1.0000 </r>
       <r>    1.2302    1.0000 </r>
       <r>    1.2306    1.0000 </r>
       <r>    1.2371    1.0000 </r>
       <r>    1.2374    1.0000 </r>
       <r>    1.3413    1.0000 </r>
       <r>    1.3415    1.0000 </r>
       <r>    1.3416    1.0000 </r>
       <r>    1.3418    1.0000 </r>
       <r>    1.3653    1.0000 </r>
       <r>    1.3664    1.0000 </r>
       <r>    1.3665    1.0000 </r>
       <r>    1.3671    1.0000 </r>
       <r>    1.3673    1.0000 </r>
       <r>    1.3735    1.0000 </r>
       <r>    1.3735    1.0000 </r>
       <r>    1.3735    1.0000 </r>
       <r>    1.3737    1.0000 </r>
[...]
       <r>    -1.7771     0.0000    96.0000 </r>
       <r>    -1.7054     0.0000    96.0000 </r>
       <r>    -1.6338     0.0000    96.0000 </r>
       <r>    -1.5621     0.0000    96.0000 </r>
       <r>    -1.4905     0.0000    96.0000 </r>
       <r>    -1.4188     0.0000    96.0000 </r>
       <r>    -1.3472     0.0000    96.0000 </r>
       <r>    -1.2755     0.0000    96.0000 </r>
       <r>    -1.2039     0.0000    96.0000 </r>
       <r>    -1.1322     0.0000    96.0000 </r>
       <r>    -1.0606     0.0000    96.0000 </r>
       <r>    -0.9889     0.0000    96.0000 </r>
       <r>    -0.9172     0.0000    96.0000 </r>
       <r>    -0.8456     0.0000    96.0000 </r>
       <r>    -0.7739     0.0000    96.0000 </r>
       <r>    -0.7023     0.0000    96.0000 </r>
       <r>    -0.6306     0.0000    96.0000 </r>
       <r>    -0.5590     0.0000    96.0000 </r>
       <r>    -0.4873     0.0001    96.0000 </r>
       <r>    -0.4157     0.0854    96.0061 </r>
       <r>    -0.3440     1.7402    96.1308 </r>
       <r>    -0.2724     1.8826    96.2657 </r>
       <r>    -0.2007     8.1837    96.8521 </r>
       <r>    -0.1290    15.3920    97.9550 </r>
       <r>    -0.0574    24.0172    99.6760 </r>
       <r>     0.0143    50.9400   103.3261 </r>
       <r>     0.0859   101.6435   110.6093 </r>
       <r>     0.1576   188.3944   124.1087 </r>
       <r>     0.2292   205.0939   138.8047 </r>
       <r>     0.3009   274.3117   158.4605 </r>
       <r>     0.3725   194.1997   172.3758 </r>
       <r>     0.4442   125.2140   181.3480 </r>
       <r>     0.5159   140.7600   191.4342 </r>
       <r>     0.5875   124.2056   200.3341 </r>
       <r>     0.6592   165.4842   212.1919 </r>
       <r>     0.7308   245.0068   229.7478 </r>
       <r>     0.8025   229.2033   246.1714 </r>
       <r>     0.8741   290.8678   267.0135 </r>
       <r>     0.9458   285.8608   287.4968 </r>
       <r>     1.0174   147.2538   298.0483 </r>
       <r>     1.0891   183.3791   311.1883 </r>
       <r>     1.1607   226.5038   327.4184 </r>
       <r>     1.2324   229.1873   343.8408 </r>
       <r>     1.3041   297.8499   365.1832 </r>
       <r>     1.3757   306.0399   387.1125 </r>
       <r>     1.4474   391.2683   415.1487 </r>
       <r>     1.5190   355.5498   440.6256 </r>
       <r>     1.5907   372.9895   467.3522 </r>
       <r>     1.6623   365.5578   493.5462 </r>
       <r>     1.7340   391.3940   521.5915 </r>
       <r>     1.8056   372.6048   548.2904 </r>
       <r>     1.8773   357.9362   573.9383 </r>
       <r>     1.9490   388.7549   601.7945 </r>
       <r>     2.0206   414.5816   631.5013 </r>
       <r>     2.0923   378.6666   658.6347 </r>
       <r>     2.1639   360.9764   684.5004 </r>
       <r>     2.2356   374.8981   711.3637 </r>
       <r>     2.3072   397.3734   739.8374 </r>
       <r>     2.3789   338.5275   764.0946 </r>
       <r>     2.4505   296.4631   785.3376 </r>
       <r>     2.5222   339.0962   809.6355 </r>
       <r>     2.5938   354.6730   835.0496 </r>
       <r>     2.6655   408.5895   864.3270 </r>
       <r>     2.7372   374.6003   891.1690 </r>
       <r>     2.8088   379.3300   918.3498 </r>
       <r>     2.8805   431.6579   949.2802 </r>
       <r>     2.9521   498.7291   985.0166 </r>
       <r>     3.0238   497.2150  1020.6445 </r>
       <r>     3.0954   369.8836  1047.1485 </r>
       <r>     3.1671   234.0255  1063.9176 </r>
       <r>     3.2387   205.3287  1078.6304 </r>
       <r>     3.3104   170.7431  1090.8650 </r>
       <r>     3.3820   138.4189  1100.7834 </r>
       <r>     3.4537   119.3169  1109.3330 </r>
       <r>     3.5254   157.2928  1120.6038 </r>
       <r>     3.5970   163.3668  1132.3098 </r>
       <r>     3.6687   101.1657  1139.5589 </r>
       <r>     3.7403    96.7926  1146.4945 </r>
       <r>     3.8120    65.1892  1151.1656 </r>
       <r>     3.8836    72.1970  1156.3389 </r>
       <r>     3.9553    73.3998  1161.5984 </r>
       <r>     4.0269    65.2481  1166.2737 </r>
       <r>     4.0986    92.3444  1172.8906 </r>
       <r>     4.1703   103.3021  1180.2927 </r>
       <r>     4.2419   114.4563  1188.4941 </r>
       <r>     4.3136    75.1331  1193.8778 </r>
       <r>     4.3852    72.8985  1199.1013 </r>
       <r>     4.4569    65.3664  1203.7851 </r>
       <r>     4.5285    92.0416  1210.3803 </r>
       <r>     4.6002    93.3792  1217.0714 </r>
       <r>     4.6718   102.4923  1224.4155 </r>
       <r>     4.7435   139.5288  1234.4134 </r>
       <r>     4.8151   137.9896  1244.3011 </r>
       <r>     4.8868    72.7062  1249.5108 </r>
       <r>     4.9585    53.5389  1253.3471 </r>
       <r>     5.0301    55.0555  1257.2921 </r>
       <r>     5.1018    87.0137  1263.5271 </r>
       <r>     5.1734   144.1169  1273.8538 </r>
       <r>     5.2451   108.9606  1281.6613 </r>
       <r>     5.3167    63.1284  1286.1848 </r>
       <r>     5.3884    59.4887  1290.4475 </r>
       <r>     5.4600    69.2172  1295.4072 </r>
       <r>     5.5317    72.4770  1300.6005 </r>
       <r>     5.6034    76.5648  1306.0868 </r>
       <r>     5.6750   110.4202  1313.9989 </r>
       <r>     5.7467   132.1303  1323.4667 </r>
       <r>     5.8183    72.7989  1328.6831 </r>
       <r>     5.8900    64.4534  1333.3015 </r>
       <r>     5.9616    58.4931  1337.4928 </r>
       <r>     6.0333    30.4555  1339.6751 </r>
       <r>     6.1049    18.9462  1341.0327 </r>
       <r>     6.1766    21.5563  1342.5773 </r>
       <r>     6.2482    16.8721  1343.7863 </r>
       <r>     6.3199     8.9960  1344.4309 </r>
       <r>     6.3916     0.9593  1344.4996 </r>
       <r>     6.4632     0.1196  1344.5082 </r>
       <r>     6.5349     1.8887  1344.6435 </r>
       <r>     6.6065     1.7804  1344.7711 </r>
       <r>     6.6782     5.3386  1345.1537 </r>
       <r>     6.7498    22.8978  1346.7944 </r>
       <r>     6.8215    26.0381  1348.6602 </r>
       <r>     6.8931    11.2139  1349.4637 </r>
       <r>     6.9648     6.3072  1349.9156 </r>
       <r>     7.0365     8.9672  1350.5582 </r>
       <r>     7.1081     4.6818  1350.8936 </r>
       <r>     7.1798    21.4796  1352.4328 </r>
       <r>     7.2514    23.9443  1354.1485 </r>
       <r>     7.3231    28.0729  1356.1601 </r>
       <r>     7.3947    31.3671  1358.4077 </r>
       <r>     7.4664    30.3374  1360.5815 </r>
       <r>     7.5380    60.5704  1364.9216 </r>
       <r>     7.6097    71.5946  1370.0517 </r>
       <r>     7.6813    26.7468  1371.9683 </r>
       <r>     7.7530    54.6298  1375.8828 </r>
       <r>     7.8247    69.6131  1380.8709 </r>
       <r>     7.8963    73.2448  1386.1192 </r>
       <r>     7.9680    75.4568  1391.5261 </r>
       <r>     8.0396    66.1435  1396.2656 </r>
       <r>     8.1113    34.4495  1398.7341 </r>
       <r>     8.1829    18.6779  1400.0724 </r>
       <r>     8.2546     8.3653  1400.6719 </r>
       <r>     8.3262    10.3404  1401.4128 </r>
       <r>     8.3979    50.7960  1405.0526 </r>
       <r>     8.4695    34.2177  1407.5044 </r>
       <r>     8.5412    32.0695  1409.8024 </r>
       <r>     8.6129    94.8756  1416.6007 </r>
       <r>     8.6845   104.6688  1424.1007 </r>
       <r>     8.7562    58.6430  1428.3028 </r>
       <r>     8.8278    51.3992  1431.9858 </r>
       <r>     8.8995    33.4201  1434.3805 </r>
       <r>     8.9711    45.8227  1437.6639 </r>
       <r>     9.0428    30.3203  1439.8365 </r>
       <r>     9.1144    22.2363  1441.4299 </r>
       <r>     9.1861    10.3229  1442.1695 </r>
       <r>     9.2578    16.6596  1443.3633 </r>
       <r>     9.3294    53.5081  1447.1974 </r>
       <r>     9.4011    49.6701  1450.7565 </r>
       <r>     9.4727    54.3244  1454.6491 </r>
       <r>     9.5444    38.2006  1457.3864 </r>
       <r>     9.6160    50.7942  1461.0260 </r>
       <r>     9.6877    50.0501  1464.6124 </r>
       <r>     9.7593    47.7835  1468.0363 </r>
       <r>     9.8310    52.4636  1471.7956 </r>
       <r>     9.9026    76.3378  1477.2655 </r>
       <r>     9.9743    55.7334  1481.2591 </r>
       <r>    10.0460   108.2248  1489.0140 </r>
       <r>    10.1176   118.9934  1497.5404 </r>
       <r>    10.1893    43.0403  1500.6245 </r>
       <r>    10.2609    28.5188  1502.6680 </r>
       <r>    10.3326    48.8452  1506.1680 </r>
       <r>    10.4042    56.1544  1510.1917 </r>
       <r>    10.4759    90.3274  1516.6641 </r>
       <r>    10.5475   109.9006  1524.5390 </r>
       <r>    10.6192   111.9263  1532.5591 </r>
       <r>    10.6909    94.2553  1539.3130 </r>
       <r>    10.7625    78.2987  1544.9234 </r>
       <r>    10.8342   107.3418  1552.6150 </r>
       <r>    10.9058    89.9543  1559.0607 </r>
       <r>    10.9775    64.9991  1563.7182 </r>
       <r>    11.0491    34.9721  1566.2241 </r>
       <r>    11.1208    55.3886  1570.1930 </r>
       <r>    11.1924    51.8062  1573.9051 </r>
       <r>    11.2641    44.7517  1577.1118 </r>
       <r>    11.3357    83.1194  1583.0677 </r>
       <r>    11.4074    53.4955  1586.9010 </r>
       <r>    11.4791    54.9584  1590.8390 </r>
       <r>    11.5507    88.7575  1597.1989 </r>
       <r>    11.6224    68.1525  1602.0824 </r>
       <r>    11.6940    46.2143  1605.3938 </r>
       <r>    11.7657    12.1581  1606.2650 </r>
       <r>    11.8373    15.0034  1607.3401 </r>
       <r>    11.9090    36.0929  1609.9263 </r>
       <r>    11.9806    20.8351  1611.4193 </r>
       <r>    12.0523     3.0155  1611.6353 </r>
       <r>    12.1239     4.5276  1611.9598 </r>
       <r>    12.1956     0.5594  1611.9998 </r>
       <r>    12.2673     0.0022  1612.0000 </r>
       <r>    12.3389     0.0000  1612.0000 </r>
       <r>    12.4106     0.0000  1612.0000 </r>
       <r>    12.4822     0.0000  1612.0000 </r>
       <r>    12.5539     0.0000  1612.0000 </r>
       <r>    12.6255     0.0000  1612.0000 </r>
       <r>    12.6972     0.0000  1612.0000 </r>
       <r>    12.7688     0.0000  1612.0000 </r>
       <r>    12.8405     0.0000  1612.0000 </r>
       <r>    12.9122     0.0000  1612.0000 </r>
       <r>    12.9838     0.0000  1612.0000 </r>
       <r>    13.0555     0.0000  1612.0000 </r>
      </set>
     </set>
    </array>
   </total>
  </dos>
 </calculation>
 <structure name="finalpos" >
  <crystal>
   <varray name="basis" >
    <v>      14.01039598       0.00139138       0.00000000 </v>
    <v>      -0.00150196      13.76691092       0.00000000 </v>
    <v>       0.00000000       0.00000000      14.55019386 </v>
   </varray>
   <i name="volume">   2806.43958022 </i>
   <varray name="rec_basis" >
    <v>       0.07137557       0.00000779       0.00000000 </v>
    <v>      -0.00000721       0.07263794       0.00000000 </v>
    <v>       0.00000000       0.00000000       0.06872761 </v>
   </varray>
  </crystal>
  <varray name="positions" >
   <v>       0.42987898       0.17167077       0.33247735 </v>
   <v>       0.92987898       0.17167077       0.33247735 </v>
   <v>       0.42987898       0.67167077       0.33247735 </v>
   <v>       0.92987898       0.67167077       0.33247735 </v>
   <v>       0.42987898       0.17167077       0.66581068 </v>
   <v>       0.92987898       0.17167077       0.66581068 </v>
   <v>       0.42987898       0.67167077       0.66581068 </v>
   <v>       0.92987898       0.67167077       0.66581068 </v>
   <v>       0.42987898       0.17167077       0.99914401 </v>
   <v>       0.92987898       0.17167077       0.99914401 </v>
   <v>       0.42987898       0.67167077       0.99914401 </v>
   <v>       0.92987898       0.67167077       0.99914401 </v>
   <v>       0.07012102       0.32832923       0.33247735 </v>
   <v>       0.57012102       0.32832923       0.33247735 </v>
   <v>       0.07012102       0.82832923       0.33247735 </v>
   <v>       0.57012102       0.82832923       0.33247735 </v>
   <v>       0.07012102       0.32832923       0.66581068 </v>
   <v>       0.57012102       0.32832923       0.66581068 </v>
   <v>       0.07012102       0.82832923       0.66581068 </v>
   <v>       0.57012102       0.82832923       0.66581068 </v>
   <v>       0.07012102       0.32832923       0.99914401 </v>
   <v>       0.57012102       0.32832923       0.99914401 </v>
   <v>       0.07012102       0.82832923       0.99914401 </v>
   <v>       0.57012102       0.82832923       0.99914401 </v>
   <v>       0.32012053       0.42167367       0.05572347 </v>
   <v>       0.82012053       0.42167367       0.05641075 </v>
   <v>       0.32012053       0.92167367       0.05641075 </v>
   <v>       0.82012053       0.92167367       0.05641075 </v>
   <v>       0.32012053       0.42167367       0.38974408 </v>
   <v>       0.82012053       0.42167367       0.38974408 </v>
   <v>       0.32012053       0.92167367       0.38974408 </v>
   <v>       0.82012053       0.92167367       0.38974408 </v>
   <v>       0.32012053       0.42167367       0.72307741 </v>
   <v>       0.82012053       0.42167367       0.72307741 </v>
   <v>       0.32012053       0.92167367       0.72307741 </v>
   <v>       0.82012053       0.92167367       0.72307741 </v>
   <v>       0.17987947       0.07832633       0.05641075 </v>
   <v>       0.67987947       0.07832633       0.05641075 </v>
   <v>       0.17987947       0.57832633       0.05641075 </v>
   <v>       0.67987947       0.57832633       0.05641075 </v>
   <v>       0.17987947       0.07832633       0.38974408 </v>
   <v>       0.67987947       0.07832633       0.38974408 </v>
   <v>       0.17987947       0.57832633       0.38974408 </v>
   <v>       0.67987947       0.57832633       0.38974408 </v>
   <v>       0.17987947       0.07832633       0.72307741 </v>
   <v>       0.67987947       0.07832633       0.72307741 </v>
   <v>       0.17987947       0.57832633       0.72307741 </v>
   <v>       0.67987947       0.57832633       0.72307741 </v>
   <v>       0.17987776       0.32832369       0.16580856 </v>
   <v>       0.67987776       0.32832369       0.16580856 </v>
   <v>       0.17987776       0.82832369       0.16580856 </v>
   <v>       0.67987776       0.82832369       0.16580856 </v>
   <v>       0.17987776       0.32832369       0.49914189 </v>
   <v>       0.67987776       0.32832369       0.49914189 </v>
   <v>       0.17987776       0.82832369       0.49914189 </v>
   <v>       0.67987776       0.82832369       0.49914189 </v>
   <v>       0.17987776       0.32832369       0.83247522 </v>
   <v>       0.67987776       0.32832369       0.83247522 </v>
   <v>       0.17987776       0.82832369       0.83247522 </v>
   <v>       0.67987776       0.82832369       0.83247522 </v>
   <v>       0.32012224       0.17167631       0.16580856 </v>
   <v>       0.82012224       0.17167631       0.16580856 </v>
   <v>       0.32012224       0.67167631       0.16580856 </v>
   <v>       0.82012224       0.67167631       0.16580856 </v>
   <v>       0.32012224       0.17167631       0.49914189 </v>
   <v>       0.82012224       0.17167631       0.49914189 </v>
   <v>       0.32012224       0.67167631       0.49914189 </v>
   <v>       0.82012224       0.67167631       0.49914189 </v>
   <v>       0.32012224       0.17167631       0.83247522 </v>
   <v>       0.82012224       0.17167631       0.83247522 </v>
   <v>       0.32012224       0.67167631       0.83247522 </v>
   <v>       0.82012224       0.67167631       0.83247522 </v>
   <v>       0.42987656       0.42167494       0.22308000 </v>
   <v>       0.92987656       0.42167494       0.22308000 </v>
   <v>       0.42987656       0.92167494       0.22308000 </v>
   <v>       0.92987656       0.92167494       0.22308000 </v>
   <v>       0.42987656       0.42167494       0.55641333 </v>
   <v>       0.92987656       0.42167494       0.55641333 </v>
   <v>       0.42987656       0.92167494       0.55641333 </v>
   <v>       0.92987656       0.92167494       0.55641333 </v>
   <v>       0.42987656       0.42167494       0.88974666 </v>
   <v>       0.92987656       0.42167494       0.88974666 </v>
   <v>       0.42987656       0.92167494       0.88974666 </v>
   <v>       0.92987656       0.92167494       0.88974666 </v>
   <v>       0.07012344       0.07832506       0.22308000 </v>
   <v>       0.57012344       0.07832506       0.22308000 </v>
   <v>       0.07012344       0.57832506       0.22308000 </v>
   <v>       0.57012344       0.57832506       0.22308000 </v>
   <v>       0.07012344       0.07832506       0.55641333 </v>
   <v>       0.57012344       0.07832506       0.55641333 </v>
   <v>       0.07012344       0.57832506       0.55641333 </v>
   <v>       0.57012344       0.57832506       0.55641333 </v>
   <v>       0.07012344       0.07832506       0.88974666 </v>
   <v>       0.57012344       0.07832506       0.88974666 </v>
   <v>       0.07012344       0.57832506       0.88974666 </v>
   <v>       0.57012344       0.57832506       0.88974666 </v>
   <v>       0.00000000       0.00000000       0.05479365 </v>
   <v>       0.50000000       0.00000000       0.05479365 </v>
   <v>       0.00000000       0.50000000       0.05479365 </v>
   <v>       0.50000000       0.50000000       0.05479365 </v>
   <v>       0.00000000       0.00000000       0.38812698 </v>
   <v>       0.50000000       0.00000000       0.38812698 </v>
   <v>       0.00000000       0.50000000       0.38812698 </v>
   <v>       0.50000000       0.50000000       0.38812698 </v>
   <v>       0.00000000       0.00000000       0.72146032 </v>
   <v>       0.50000000       0.00000000       0.72146032 </v>
   <v>       0.00000000       0.50000000       0.72146032 </v>
   <v>       0.50000000       0.50000000       0.72146032 </v>
   <v>       0.25000000       0.00000000       0.22145206 </v>
   <v>       0.75000000       0.00000000       0.22145206 </v>
   <v>       0.25000000       0.50000000       0.22145206 </v>
   <v>       0.75000000       0.50000000       0.22145206 </v>
   <v>       0.25000000       0.00000000       0.55478539 </v>
   <v>       0.75000000       0.00000000       0.55478539 </v>
   <v>       0.25000000       0.50000000       0.55478539 </v>
   <v>       0.75000000       0.50000000       0.55478539 </v>
   <v>       0.25000000       0.00000000       0.88811873 </v>
   <v>       0.75000000       0.00000000       0.88811873 </v>
   <v>       0.25000000       0.50000000       0.88811873 </v>
   <v>       0.75000000       0.50000000       0.88811873 </v>
   <v>       0.00000000       0.25000000       0.16743769 </v>
   <v>       0.50000000       0.25000000       0.16743769 </v>
   <v>       0.00000000       0.75000000       0.16743769 </v>
   <v>       0.50000000       0.75000000       0.16743769 </v>
   <v>       0.00000000       0.25000000       0.50077102 </v>
   <v>       0.50000000       0.25000000       0.50077102 </v>
   <v>       0.00000000       0.75000000       0.50077102 </v>
   <v>       0.50000000       0.75000000       0.50077102 </v>
   <v>       0.00000000       0.25000000       0.83410435 </v>
   <v>       0.50000000       0.25000000       0.83410435 </v>
   <v>       0.00000000       0.75000000       0.83410435 </v>
   <v>       0.50000000       0.75000000       0.83410435 </v>
   <v>       0.25000000       0.25000000       0.00076332 </v>
   <v>       0.75000000       0.25000000       0.00076332 </v>
   <v>       0.25000000       0.75000000       0.00076332 </v>
   <v>       0.75000000       0.75000000       0.00076332 </v>
   <v>       0.25000000       0.25000000       0.33409665 </v>
   <v>       0.75000000       0.25000000       0.33409665 </v>
   <v>       0.25000000       0.75000000       0.33409665 </v>
   <v>       0.75000000       0.75000000       0.33409665 </v>
   <v>       0.25000000       0.25000000       0.66742999 </v>
   <v>       0.75000000       0.25000000       0.66742999 </v>
   <v>       0.25000000       0.75000000       0.66742999 </v>
   <v>       0.75000000       0.75000000       0.66742999 </v>
  </varray>
 </structure>
</modeling>
