 144 144   0   0
  0.1948916E+02  0.1401040E-08  0.1376691E-08  0.1455019E-08  0.5000000E-15
  1.000000000000000E-004
  CAR 
 unknown system                          
     13.05547730     -8.44099067  301      6.26452486      1.00000000
     -8.441  0.0000E+00  0.0000E+00
     -8.369  0.0000E+00  0.0000E+00
     -8.298  0.0000E+00  0.0000E+00
     -8.226  0.0000E+00  0.0000E+00
     -8.154  0.0000E+00  0.0000E+00
     -8.083  0.0000E+00  0.0000E+00
     -8.011  0.0000E+00  0.0000E+00
     -7.939  0.0000E+00  0.0000E+00
     -7.868  0.0000E+00  0.0000E+00
     -7.796  0.0000E+00  0.0000E+00
     -7.724  0.2981E-12  0.2136E-13
     -7.653  0.1594E-06  0.1142E-07
     -7.581  0.1592E-02  0.1141E-03
     -7.509  0.3520E+00  0.2534E-01
     -7.438  0.4313E+01  0.3344E+00
     -7.366  0.1910E+02  0.1703E+01
     -7.295  0.3786E+02  0.4416E+01
     -7.223  0.3949E+02  0.7246E+01
     -7.151  0.6431E+02  0.1185E+02
     -7.080  0.1004E+03  0.1905E+02
     -7.008  0.1264E+03  0.2810E+02
     -6.936  0.2082E+03  0.4303E+02
     -6.865  0.2226E+03  0.5897E+02
     -6.793  0.2574E+03  0.7742E+02
     -6.721  0.2074E+03  0.9228E+02
     -6.650  0.4965E+02  0.9584E+02
     -6.578  0.2236E+01  0.9600E+02
     -6.506  0.8089E-02  0.9600E+02
     -6.435  0.1026E-05  0.9600E+02
     -6.363  0.3056E-11  0.9600E+02
     -6.291  0.0000E+00  0.9600E+02
     -6.220  0.0000E+00  0.9600E+02
     -6.148  0.0000E+00  0.9600E+02
     -6.076  0.0000E+00  0.9600E+02
     -6.005  0.0000E+00  0.9600E+02
     -5.933  0.0000E+00  0.9600E+02
     -5.861  0.0000E+00  0.9600E+02
     -5.790  0.0000E+00  0.9600E+02
     -5.718  0.0000E+00  0.9600E+02
     -5.646  0.0000E+00  0.9600E+02
     -5.575  0.0000E+00  0.9600E+02
     -5.503  0.0000E+00  0.9600E+02
     -5.431  0.0000E+00  0.9600E+02
     -5.360  0.0000E+00  0.9600E+02
     -5.288  0.0000E+00  0.9600E+02
     -5.217  0.0000E+00  0.9600E+02
     -5.145  0.0000E+00  0.9600E+02
     -5.073  0.0000E+00  0.9600E+02
     -5.002  0.0000E+00  0.9600E+02
     -4.930  0.0000E+00  0.9600E+02
     -4.858  0.0000E+00  0.9600E+02
     -4.787  0.0000E+00  0.9600E+02
     -4.715  0.0000E+00  0.9600E+02
     -4.643  0.0000E+00  0.9600E+02
     -4.572  0.0000E+00  0.9600E+02
     -4.500  0.0000E+00  0.9600E+02
     -4.428  0.0000E+00  0.9600E+02
     -4.357  0.0000E+00  0.9600E+02
     -4.285  0.0000E+00  0.9600E+02
     -4.213  0.0000E+00  0.9600E+02
     -4.142  0.0000E+00  0.9600E+02
     -4.070  0.0000E+00  0.9600E+02
     -3.998  0.0000E+00  0.9600E+02
     -3.927  0.0000E+00  0.9600E+02
     -3.855  0.0000E+00  0.9600E+02
     -3.783  0.0000E+00  0.9600E+02
     -3.712  0.0000E+00  0.9600E+02
     -3.640  0.0000E+00  0.9600E+02
     -3.568  0.0000E+00  0.9600E+02
     -3.497  0.0000E+00  0.9600E+02
     -3.425  0.0000E+00  0.9600E+02
     -3.353  0.0000E+00  0.9600E+02
     -3.282  0.0000E+00  0.9600E+02
     -3.210  0.0000E+00  0.9600E+02
     -3.139  0.0000E+00  0.9600E+02
     -3.067  0.0000E+00  0.9600E+02
     -2.995  0.0000E+00  0.9600E+02
     -2.924  0.0000E+00  0.9600E+02
     -2.852  0.0000E+00  0.9600E+02
     -2.780  0.0000E+00  0.9600E+02
     -2.709  0.0000E+00  0.9600E+02
     -2.637  0.0000E+00  0.9600E+02
     -2.565  0.0000E+00  0.9600E+02
     -2.494  0.0000E+00  0.9600E+02
     -2.422  0.0000E+00  0.9600E+02
     -2.350  0.0000E+00  0.9600E+02
     -2.279  0.0000E+00  0.9600E+02
     -2.207  0.0000E+00  0.9600E+02
     -2.135  0.0000E+00  0.9600E+02
     -2.064  0.0000E+00  0.9600E+02
     -1.992  0.0000E+00  0.9600E+02
     -1.920  0.0000E+00  0.9600E+02
     -1.849  0.0000E+00  0.9600E+02
     -1.777  0.0000E+00  0.9600E+02
     -1.705  0.0000E+00  0.9600E+02
     -1.634  0.0000E+00  0.9600E+02
     -1.562  0.0000E+00  0.9600E+02
     -1.490  0.0000E+00  0.9600E+02
     -1.419  0.0000E+00  0.9600E+02
     -1.347  0.0000E+00  0.9600E+02
     -1.276  0.0000E+00  0.9600E+02
     -1.204  0.0000E+00  0.9600E+02
     -1.132  0.0000E+00  0.9600E+02
     -1.061  0.0000E+00  0.9600E+02
     -0.989  0.0000E+00  0.9600E+02
     -0.917  0.0000E+00  0.9600E+02
     -0.846  0.0000E+00  0.9600E+02
     -0.774  0.0000E+00  0.9600E+02
     -0.702  0.0000E+00  0.9600E+02
     -0.631  0.1549E-14  0.9600E+02
     -0.559  0.3068E-08  0.9600E+02
     -0.487  0.1143E-03  0.9600E+02
     -0.416  0.8604E-01  0.9601E+02
     -0.344  0.1744E+01  0.9613E+02
     -0.272  0.1881E+01  0.9627E+02
     -0.201  0.8204E+01  0.9685E+02
     -0.129  0.1539E+02  0.9796E+02
     -0.057  0.2404E+02  0.9968E+02
      0.014  0.5094E+02  0.1033E+03
      0.086  0.1017E+03  0.1106E+03
      0.158  0.1885E+03  0.1241E+03
      0.229  0.2052E+03  0.1388E+03
      0.301  0.2744E+03  0.1585E+03
      0.373  0.1941E+03  0.1724E+03
      0.444  0.1252E+03  0.1814E+03
      0.516  0.1407E+03  0.1914E+03
      0.588  0.1242E+03  0.2003E+03
      0.659  0.1655E+03  0.2122E+03
      0.731  0.2450E+03  0.2298E+03
      0.802  0.2292E+03  0.2462E+03
      0.874  0.2908E+03  0.2670E+03
      0.946  0.2859E+03  0.2875E+03
      1.017  0.1473E+03  0.2980E+03
      1.089  0.1836E+03  0.3112E+03
      1.161  0.2266E+03  0.3274E+03
      1.232  0.2291E+03  0.3439E+03
      1.304  0.2978E+03  0.3652E+03
      1.376  0.3060E+03  0.3871E+03
      1.447  0.3913E+03  0.4152E+03
      1.519  0.3555E+03  0.4406E+03
      1.591  0.3731E+03  0.4674E+03
      1.662  0.3656E+03  0.4935E+03
      1.734  0.3915E+03  0.5216E+03
      1.806  0.3727E+03  0.5483E+03
      1.877  0.3579E+03  0.5740E+03
      1.949  0.3888E+03  0.6018E+03
      2.021  0.4146E+03  0.6315E+03
      2.092  0.3785E+03  0.6586E+03
      2.164  0.3610E+03  0.6845E+03
      2.236  0.3749E+03  0.7114E+03
      2.307  0.3973E+03  0.7398E+03
      2.379  0.3385E+03  0.7641E+03
      2.451  0.2964E+03  0.7853E+03
      2.522  0.3391E+03  0.8096E+03
      2.594  0.3547E+03  0.8350E+03
      2.666  0.4086E+03  0.8643E+03
      2.737  0.3746E+03  0.8912E+03
      2.809  0.3794E+03  0.9184E+03
      2.880  0.4317E+03  0.9493E+03
      2.952  0.4987E+03  0.9850E+03
      3.024  0.4973E+03  0.1021E+04
      3.095  0.3699E+03  0.1047E+04
      3.167  0.2340E+03  0.1064E+04
      3.239  0.2054E+03  0.1079E+04
      3.310  0.1708E+03  0.1091E+04
      3.382  0.1384E+03  0.1101E+04
      3.454  0.1193E+03  0.1109E+04
      3.525  0.1573E+03  0.1121E+04
      3.597  0.1634E+03  0.1132E+04
      3.669  0.1011E+03  0.1140E+04
      3.740  0.9677E+02  0.1147E+04
      3.812  0.6514E+02  0.1151E+04
      3.884  0.7225E+02  0.1156E+04
      3.955  0.7341E+02  0.1162E+04
      4.027  0.6522E+02  0.1166E+04
      4.099  0.9233E+02  0.1173E+04
      4.170  0.1034E+03  0.1180E+04
      4.242  0.1144E+03  0.1188E+04
      4.314  0.7511E+02  0.1194E+04
      4.385  0.7293E+02  0.1199E+04
      4.457  0.6535E+02  0.1204E+04
      4.529  0.9208E+02  0.1210E+04
      4.600  0.9339E+02  0.1217E+04
      4.672  0.1025E+03  0.1224E+04
      4.744  0.1396E+03  0.1234E+04
      4.815  0.1380E+03  0.1244E+04
      4.887  0.7261E+02  0.1250E+04
      4.958  0.5352E+02  0.1253E+04
      5.030  0.5506E+02  0.1257E+04
      5.102  0.8703E+02  0.1264E+04
      5.173  0.1441E+03  0.1274E+04
      5.245  0.1089E+03  0.1282E+04
      5.317  0.6312E+02  0.1286E+04
      5.388  0.5945E+02  0.1290E+04
      5.460  0.6924E+02  0.1295E+04
      5.532  0.7247E+02  0.1301E+04
      5.603  0.7658E+02  0.1306E+04
      5.675  0.1104E+03  0.1314E+04
      5.747  0.1321E+03  0.1323E+04
      5.818  0.7282E+02  0.1329E+04
      5.890  0.6445E+02  0.1333E+04
      5.962  0.5849E+02  0.1337E+04
      6.033  0.3046E+02  0.1340E+04
      6.105  0.1896E+02  0.1341E+04
      6.177  0.2155E+02  0.1343E+04
      6.248  0.1686E+02  0.1344E+04
      6.320  0.9007E+01  0.1344E+04
      6.392  0.9632E+00  0.1344E+04
      6.463  0.1175E+00  0.1345E+04
      6.535  0.1880E+01  0.1345E+04
      6.607  0.1792E+01  0.1345E+04
      6.678  0.5343E+01  0.1345E+04
      6.750  0.2289E+02  0.1347E+04
      6.822  0.2603E+02  0.1349E+04
      6.893  0.1123E+02  0.1349E+04
      6.965  0.6300E+01  0.1350E+04
      7.036  0.8964E+01  0.1351E+04
      7.108  0.4691E+01  0.1351E+04
      7.180  0.2149E+02  0.1352E+04
      7.251  0.2395E+02  0.1354E+04
      7.323  0.2806E+02  0.1356E+04
      7.395  0.3138E+02  0.1358E+04
      7.466  0.3032E+02  0.1361E+04
      7.538  0.6058E+02  0.1365E+04
      7.610  0.7155E+02  0.1370E+04
      7.681  0.2674E+02  0.1372E+04
      7.753  0.5465E+02  0.1376E+04
      7.825  0.6963E+02  0.1381E+04
      7.896  0.7324E+02  0.1386E+04
      7.968  0.7543E+02  0.1392E+04
      8.040  0.6619E+02  0.1396E+04
      8.111  0.3445E+02  0.1399E+04
      8.183  0.1866E+02  0.1400E+04
      8.255  0.8355E+01  0.1401E+04
      8.326  0.1034E+02  0.1401E+04
      8.398  0.5076E+02  0.1405E+04
      8.470  0.3426E+02  0.1408E+04
      8.541  0.3209E+02  0.1410E+04
      8.613  0.9486E+02  0.1417E+04
      8.685  0.1047E+03  0.1424E+04
      8.756  0.5866E+02  0.1428E+04
      8.828  0.5137E+02  0.1432E+04
      8.899  0.3345E+02  0.1434E+04
      8.971  0.4583E+02  0.1438E+04
      9.043  0.3032E+02  0.1440E+04
      9.114  0.2223E+02  0.1441E+04
      9.186  0.1030E+02  0.1442E+04
      9.258  0.1668E+02  0.1443E+04
      9.329  0.5352E+02  0.1447E+04
      9.401  0.4964E+02  0.1451E+04
      9.473  0.5432E+02  0.1455E+04
      9.544  0.3819E+02  0.1457E+04
      9.616  0.5083E+02  0.1461E+04
      9.688  0.5008E+02  0.1465E+04
      9.759  0.4776E+02  0.1468E+04
      9.831  0.5241E+02  0.1472E+04
      9.903  0.7635E+02  0.1477E+04
      9.974  0.5584E+02  0.1481E+04
     10.046  0.1083E+03  0.1489E+04
     10.118  0.1189E+03  0.1498E+04
     10.189  0.4297E+02  0.1501E+04
     10.261  0.2853E+02  0.1503E+04
     10.333  0.4886E+02  0.1506E+04
     10.404  0.5618E+02  0.1510E+04
     10.476  0.9034E+02  0.1517E+04
     10.548  0.1099E+03  0.1525E+04
     10.619  0.1119E+03  0.1533E+04
     10.691  0.9424E+02  0.1539E+04
     10.763  0.7830E+02  0.1545E+04
     10.834  0.1074E+03  0.1553E+04
     10.906  0.8994E+02  0.1559E+04
     10.977  0.6502E+02  0.1564E+04
     11.049  0.3491E+02  0.1566E+04
     11.121  0.5539E+02  0.1570E+04
     11.192  0.5179E+02  0.1574E+04
     11.264  0.4478E+02  0.1577E+04
     11.336  0.8315E+02  0.1583E+04
     11.407  0.5345E+02  0.1587E+04
     11.479  0.5496E+02  0.1591E+04
     11.551  0.8877E+02  0.1597E+04
     11.622  0.6813E+02  0.1602E+04
     11.694  0.4620E+02  0.1605E+04
     11.766  0.1215E+02  0.1606E+04
     11.837  0.1481E+02  0.1607E+04
     11.909  0.3624E+02  0.1610E+04
     11.981  0.2090E+02  0.1611E+04
     12.052  0.3021E+01  0.1612E+04
     12.124  0.4524E+01  0.1612E+04
     12.196  0.5573E+00  0.1612E+04
     12.267  0.2221E-02  0.1612E+04
     12.339  0.1982E-06  0.1612E+04
     12.411  0.3424E-12  0.1612E+04
     12.482  0.0000E+00  0.1612E+04
     12.554  0.0000E+00  0.1612E+04
     12.626  0.0000E+00  0.1612E+04
     12.697  0.0000E+00  0.1612E+04
     12.769  0.0000E+00  0.1612E+04
     12.841  0.0000E+00  0.1612E+04
     12.912  0.0000E+00  0.1612E+04
     12.984  0.0000E+00  0.1612E+04
     13.055  0.0000E+00  0.1612E+04
