 192 192   0   0
  0.1931523E+02  0.1767436E-08  0.1377516E-08  0.1580299E-08  0.5000000E-15
  1.000000000000000E-004
  CAR 
 unknown system                          
     13.15469938     -8.37054615  301      6.46168759      1.00000000
     -8.371  0.0000E+00  0.0000E+00
     -8.299  0.0000E+00  0.0000E+00
     -8.227  0.0000E+00  0.0000E+00
     -8.155  0.0000E+00  0.0000E+00
     -8.084  0.0000E+00  0.0000E+00
     -8.012  0.0000E+00  0.0000E+00
     -7.940  0.0000E+00  0.0000E+00
     -7.868  0.0000E+00  0.0000E+00
     -7.797  0.0000E+00  0.0000E+00
     -7.725  0.0000E+00  0.0000E+00
     -7.653  0.2764E-12  0.1983E-13
     -7.581  0.1530E-06  0.1098E-07
     -7.510  0.1569E-02  0.1126E-03
     -7.438  0.3671E+00  0.2645E-01
     -7.366  0.5491E+01  0.4205E+00
     -7.294  0.2299E+02  0.2070E+01
     -7.223  0.4301E+02  0.5156E+01
     -7.151  0.5040E+02  0.8772E+01
     -7.079  0.7152E+02  0.1390E+02
     -7.007  0.1042E+03  0.2138E+02
     -6.936  0.1347E+03  0.3104E+02
     -6.864  0.2017E+03  0.4551E+02
     -6.792  0.2948E+03  0.6667E+02
     -6.720  0.3593E+03  0.9245E+02
     -6.649  0.2860E+03  0.1130E+03
     -6.577  0.1778E+03  0.1257E+03
     -6.505  0.3118E+02  0.1280E+03
     -6.433  0.4966E+00  0.1280E+03
     -6.362  0.3025E-03  0.1280E+03
     -6.290  0.4295E-08  0.1280E+03
     -6.218  0.3868E-15  0.1280E+03
     -6.146  0.0000E+00  0.1280E+03
     -6.075  0.0000E+00  0.1280E+03
     -6.003  0.0000E+00  0.1280E+03
     -5.931  0.0000E+00  0.1280E+03
     -5.859  0.0000E+00  0.1280E+03
     -5.788  0.0000E+00  0.1280E+03
     -5.716  0.0000E+00  0.1280E+03
     -5.644  0.0000E+00  0.1280E+03
     -5.572  0.0000E+00  0.1280E+03
     -5.501  0.0000E+00  0.1280E+03
     -5.429  0.0000E+00  0.1280E+03
     -5.357  0.0000E+00  0.1280E+03
     -5.285  0.0000E+00  0.1280E+03
     -5.214  0.0000E+00  0.1280E+03
     -5.142  0.0000E+00  0.1280E+03
     -5.070  0.0000E+00  0.1280E+03
     -4.998  0.0000E+00  0.1280E+03
     -4.927  0.0000E+00  0.1280E+03
     -4.855  0.0000E+00  0.1280E+03
     -4.783  0.0000E+00  0.1280E+03
     -4.711  0.0000E+00  0.1280E+03
     -4.640  0.0000E+00  0.1280E+03
     -4.568  0.0000E+00  0.1280E+03
     -4.496  0.0000E+00  0.1280E+03
     -4.424  0.0000E+00  0.1280E+03
     -4.353  0.0000E+00  0.1280E+03
     -4.281  0.0000E+00  0.1280E+03
     -4.209  0.0000E+00  0.1280E+03
     -4.137  0.0000E+00  0.1280E+03
     -4.065  0.0000E+00  0.1280E+03
     -3.994  0.0000E+00  0.1280E+03
     -3.922  0.0000E+00  0.1280E+03
     -3.850  0.0000E+00  0.1280E+03
     -3.778  0.0000E+00  0.1280E+03
     -3.707  0.0000E+00  0.1280E+03
     -3.635  0.0000E+00  0.1280E+03
     -3.563  0.0000E+00  0.1280E+03
     -3.491  0.0000E+00  0.1280E+03
     -3.420  0.0000E+00  0.1280E+03
     -3.348  0.0000E+00  0.1280E+03
     -3.276  0.0000E+00  0.1280E+03
     -3.204  0.0000E+00  0.1280E+03
     -3.133  0.0000E+00  0.1280E+03
     -3.061  0.0000E+00  0.1280E+03
     -2.989  0.0000E+00  0.1280E+03
     -2.917  0.0000E+00  0.1280E+03
     -2.846  0.0000E+00  0.1280E+03
     -2.774  0.0000E+00  0.1280E+03
     -2.702  0.0000E+00  0.1280E+03
     -2.630  0.0000E+00  0.1280E+03
     -2.559  0.0000E+00  0.1280E+03
     -2.487  0.0000E+00  0.1280E+03
     -2.415  0.0000E+00  0.1280E+03
     -2.343  0.0000E+00  0.1280E+03
     -2.272  0.0000E+00  0.1280E+03
     -2.200  0.0000E+00  0.1280E+03
     -2.128  0.0000E+00  0.1280E+03
     -2.056  0.0000E+00  0.1280E+03
     -1.985  0.0000E+00  0.1280E+03
     -1.913  0.0000E+00  0.1280E+03
     -1.841  0.0000E+00  0.1280E+03
     -1.769  0.0000E+00  0.1280E+03
     -1.698  0.0000E+00  0.1280E+03
     -1.626  0.0000E+00  0.1280E+03
     -1.554  0.0000E+00  0.1280E+03
     -1.482  0.0000E+00  0.1280E+03
     -1.411  0.0000E+00  0.1280E+03
     -1.339  0.0000E+00  0.1280E+03
     -1.267  0.0000E+00  0.1280E+03
     -1.195  0.0000E+00  0.1280E+03
     -1.124  0.0000E+00  0.1280E+03
     -1.052  0.0000E+00  0.1280E+03
     -0.980  0.0000E+00  0.1280E+03
     -0.908  0.0000E+00  0.1280E+03
     -0.837  0.0000E+00  0.1280E+03
     -0.765  0.0000E+00  0.1280E+03
     -0.693  0.0000E+00  0.1280E+03
     -0.621  0.0000E+00  0.1280E+03
     -0.550  0.0000E+00  0.1280E+03
     -0.478  0.6073E-13  0.1280E+03
     -0.406  0.5958E-07  0.1280E+03
     -0.334  0.1070E-02  0.1280E+03
     -0.263  0.4048E+00  0.1280E+03
     -0.191  0.5630E+01  0.1284E+03
     -0.119  0.1385E+02  0.1294E+03
     -0.047  0.4558E+02  0.1327E+03
      0.024  0.5390E+02  0.1366E+03
      0.096  0.6801E+02  0.1414E+03
      0.168  0.2130E+03  0.1567E+03
      0.240  0.2747E+03  0.1764E+03
      0.311  0.2132E+03  0.1917E+03
      0.383  0.2363E+03  0.2087E+03
      0.455  0.2915E+03  0.2296E+03
      0.527  0.2152E+03  0.2450E+03
      0.598  0.1973E+03  0.2592E+03
      0.670  0.2093E+03  0.2742E+03
      0.742  0.2222E+03  0.2902E+03
      0.814  0.2914E+03  0.3111E+03
      0.885  0.2957E+03  0.3323E+03
      0.957  0.2618E+03  0.3511E+03
      1.029  0.3181E+03  0.3739E+03
      1.101  0.3134E+03  0.3964E+03
      1.172  0.2852E+03  0.4168E+03
      1.244  0.2382E+03  0.4339E+03
      1.316  0.2498E+03  0.4518E+03
      1.388  0.3267E+03  0.4753E+03
      1.459  0.4212E+03  0.5055E+03
      1.531  0.4095E+03  0.5349E+03
      1.603  0.4440E+03  0.5667E+03
      1.675  0.5169E+03  0.6038E+03
      1.746  0.5255E+03  0.6415E+03
      1.818  0.5135E+03  0.6784E+03
      1.890  0.3919E+03  0.7065E+03
      1.962  0.4469E+03  0.7386E+03
      2.033  0.4446E+03  0.7705E+03
      2.105  0.4740E+03  0.8045E+03
      2.177  0.5328E+03  0.8427E+03
      2.249  0.5775E+03  0.8841E+03
      2.320  0.6058E+03  0.9276E+03
      2.392  0.6706E+03  0.9757E+03
      2.464  0.6142E+03  0.1020E+04
      2.536  0.5516E+03  0.1059E+04
      2.607  0.5592E+03  0.1099E+04
      2.679  0.5716E+03  0.1140E+04
      2.751  0.6377E+03  0.1186E+04
      2.823  0.6965E+03  0.1236E+04
      2.894  0.5619E+03  0.1277E+04
      2.966  0.4700E+03  0.1310E+04
      3.038  0.4623E+03  0.1343E+04
      3.110  0.4538E+03  0.1376E+04
      3.181  0.4274E+03  0.1407E+04
      3.253  0.3619E+03  0.1433E+04
      3.325  0.2298E+03  0.1449E+04
      3.397  0.1860E+03  0.1462E+04
      3.468  0.1857E+03  0.1476E+04
      3.540  0.1904E+03  0.1489E+04
      3.612  0.2049E+03  0.1504E+04
      3.684  0.1803E+03  0.1517E+04
      3.755  0.1219E+03  0.1526E+04
      3.827  0.9450E+02  0.1533E+04
      3.899  0.1006E+03  0.1540E+04
      3.971  0.1209E+03  0.1549E+04
      4.042  0.9795E+02  0.1556E+04
      4.114  0.1017E+03  0.1563E+04
      4.186  0.1565E+03  0.1574E+04
      4.258  0.9734E+02  0.1581E+04
      4.329  0.8730E+02  0.1587E+04
      4.401  0.9343E+02  0.1594E+04
      4.473  0.9196E+02  0.1601E+04
      4.545  0.1491E+03  0.1611E+04
      4.616  0.1165E+03  0.1620E+04
      4.688  0.9275E+02  0.1626E+04
      4.760  0.1128E+03  0.1634E+04
      4.832  0.8562E+02  0.1641E+04
      4.903  0.1020E+03  0.1648E+04
      4.975  0.1700E+03  0.1660E+04
      5.047  0.1302E+03  0.1669E+04
      5.119  0.6916E+02  0.1674E+04
      5.190  0.9386E+02  0.1681E+04
      5.262  0.7390E+02  0.1686E+04
      5.334  0.1238E+03  0.1695E+04
      5.406  0.1439E+03  0.1706E+04
      5.477  0.1191E+03  0.1714E+04
      5.549  0.7246E+02  0.1719E+04
      5.621  0.9347E+02  0.1726E+04
      5.693  0.1414E+03  0.1736E+04
      5.764  0.1559E+03  0.1747E+04
      5.836  0.1067E+03  0.1755E+04
      5.908  0.1204E+03  0.1764E+04
      5.980  0.1166E+03  0.1772E+04
      6.051  0.8578E+02  0.1778E+04
      6.123  0.6223E+02  0.1783E+04
      6.195  0.4234E+02  0.1786E+04
      6.267  0.3733E+02  0.1788E+04
      6.338  0.3042E+02  0.1791E+04
      6.410  0.1365E+02  0.1792E+04
      6.482  0.7502E+01  0.1792E+04
      6.554  0.2428E+01  0.1792E+04
      6.625  0.4520E+01  0.1793E+04
      6.697  0.2830E+01  0.1793E+04
      6.769  0.2375E+01  0.1793E+04
      6.841  0.1679E+01  0.1793E+04
      6.912  0.1132E+02  0.1794E+04
      6.984  0.1505E+02  0.1795E+04
      7.056  0.1040E+02  0.1796E+04
      7.128  0.1052E+02  0.1796E+04
      7.199  0.2553E+02  0.1798E+04
      7.271  0.3107E+02  0.1801E+04
      7.343  0.1852E+02  0.1802E+04
      7.415  0.3200E+02  0.1804E+04
      7.486  0.3515E+02  0.1807E+04
      7.558  0.3726E+02  0.1809E+04
      7.630  0.5734E+02  0.1813E+04
      7.702  0.6734E+02  0.1818E+04
      7.773  0.7271E+02  0.1824E+04
      7.845  0.7343E+02  0.1829E+04
      7.917  0.6232E+02  0.1833E+04
      7.989  0.5795E+02  0.1837E+04
      8.060  0.7777E+02  0.1843E+04
      8.132  0.8141E+02  0.1849E+04
      8.204  0.8321E+02  0.1855E+04
      8.276  0.7334E+02  0.1860E+04
      8.347  0.6640E+02  0.1865E+04
      8.419  0.7402E+02  0.1870E+04
      8.491  0.8886E+02  0.1877E+04
      8.563  0.7540E+02  0.1882E+04
      8.634  0.5740E+02  0.1886E+04
      8.706  0.8124E+02  0.1892E+04
      8.778  0.8431E+02  0.1898E+04
      8.850  0.5767E+02  0.1902E+04
      8.921  0.4614E+02  0.1905E+04
      8.993  0.4018E+02  0.1908E+04
      9.065  0.5290E+02  0.1912E+04
      9.137  0.8569E+02  0.1918E+04
      9.208  0.6419E+02  0.1923E+04
      9.280  0.4924E+02  0.1926E+04
      9.352  0.5694E+02  0.1930E+04
      9.424  0.6783E+02  0.1935E+04
      9.495  0.6309E+02  0.1940E+04
      9.567  0.4084E+02  0.1943E+04
      9.639  0.7110E+02  0.1948E+04
      9.711  0.1039E+03  0.1955E+04
      9.782  0.1074E+03  0.1963E+04
      9.854  0.8809E+02  0.1969E+04
      9.926  0.7646E+02  0.1975E+04
      9.998  0.5771E+02  0.1979E+04
     10.069  0.8411E+02  0.1985E+04
     10.141  0.8811E+02  0.1991E+04
     10.213  0.1002E+03  0.1999E+04
     10.285  0.1087E+03  0.2006E+04
     10.356  0.1134E+03  0.2014E+04
     10.428  0.1102E+03  0.2022E+04
     10.500  0.9318E+02  0.2029E+04
     10.572  0.7357E+02  0.2034E+04
     10.643  0.7595E+02  0.2040E+04
     10.715  0.6950E+02  0.2045E+04
     10.787  0.6799E+02  0.2050E+04
     10.859  0.7238E+02  0.2055E+04
     10.930  0.7205E+02  0.2060E+04
     11.002  0.5542E+02  0.2064E+04
     11.074  0.9337E+02  0.2071E+04
     11.146  0.1049E+03  0.2078E+04
     11.217  0.8045E+02  0.2084E+04
     11.289  0.9510E+02  0.2091E+04
     11.361  0.8154E+02  0.2097E+04
     11.433  0.1068E+03  0.2104E+04
     11.504  0.1298E+03  0.2114E+04
     11.576  0.1184E+03  0.2122E+04
     11.648  0.1053E+03  0.2130E+04
     11.720  0.6271E+02  0.2134E+04
     11.791  0.9024E+02  0.2141E+04
     11.863  0.5036E+02  0.2144E+04
     11.935  0.2702E+02  0.2146E+04
     12.007  0.1386E+02  0.2147E+04
     12.078  0.1920E+02  0.2149E+04
     12.150  0.1332E+02  0.2150E+04
     12.222  0.5856E+01  0.2150E+04
     12.294  0.4870E+00  0.2150E+04
     12.365  0.1747E-02  0.2150E+04
     12.437  0.1579E-06  0.2150E+04
     12.509  0.2785E-12  0.2150E+04
     12.581  0.0000E+00  0.2150E+04
     12.652  0.0000E+00  0.2150E+04
     12.724  0.0000E+00  0.2150E+04
     12.796  0.0000E+00  0.2150E+04
     12.868  0.0000E+00  0.2150E+04
     12.939  0.0000E+00  0.2150E+04
     13.011  0.0000E+00  0.2150E+04
     13.083  0.0000E+00  0.2150E+04
     13.155  0.0000E+00  0.2150E+04
