 vasp.5.4.4.18Apr17-6-g9f103f2a35 (build Jul 30 2020 14:31:59) complex          
  
 executed on             LinuxIFC date 2020.11.04  05:21:56
 running on   20 total cores
 distrk:  each k-point on   10 cores,    2 groups
 distr:  one band on NCORES_PER_BAND=  10 cores,    1 groups


--------------------------------------------------------------------------------------------------------


 INCAR:
 POTCAR:    PAW_PBE Se 06Sep2000                  
 POTCAR:    PAW_PBE Ag 02Apr2005                  

 ----------------------------------------------------------------------------- 
|                                                                             |
|           W    W    AA    RRRRR   N    N  II  N    N   GGGG   !!!           |
|           W    W   A  A   R    R  NN   N  II  NN   N  G    G  !!!           |
|           W    W  A    A  R    R  N N  N  II  N N  N  G       !!!           |
|           W WW W  AAAAAA  RRRRR   N  N N  II  N  N N  G  GGG   !            |
|           WW  WW  A    A  R   R   N   NN  II  N   NN  G    G                |
|           W    W  A    A  R    R  N    N  II  N    N   GGGG   !!!           |
|                                                                             |
|      For optimal performance we recommend to set                            |
|        NCORE= 4 - approx SQRT( number of cores)                             |
|      NCORE specifies how many cores store one orbital (NPAR=cpu/NCORE).     |
|      This setting can  greatly improve the performance of VASP for DFT.     |
|      The default,   NCORE=1            might be grossly inefficient         |
|      on modern multi-core architectures or massively parallel machines.     |
|      Do your own testing !!!!                                               |
|      Unfortunately you need to use the default for GW and RPA calculations. |
|      (for HF NCORE is supported but not extensively tested yet)             |
|                                                                             |
 ----------------------------------------------------------------------------- 


 ----------------------------------------------------------------------------- 
|                                                                             |
|           W    W    AA    RRRRR   N    N  II  N    N   GGGG   !!!           |
|           W    W   A  A   R    R  NN   N  II  NN   N  G    G  !!!           |
|           W    W  A    A  R    R  N N  N  II  N N  N  G       !!!           |
|           W WW W  AAAAAA  RRRRR   N  N N  II  N  N N  G  GGG   !            |
|           WW  WW  A    A  R   R   N   NN  II  N   NN  G    G                |
|           W    W  A    A  R    R  N    N  II  N    N   GGGG   !!!           |
|                                                                             |
|      You have enabled k-point parallelism (KPAR>1).                         |
|      This developmental code was originally  written by Paul Kent at ORNL,  |
|      and carefully double checked in Vienna.                                |
|      GW as well as linear response parallelism added by Martijn Marsman     |
|      and Georg Kresse.                                                      |
|      Carefully verify results versus KPAR=1.                                |
|      Report problems to Paul Kent and Vienna.                               |
|                                                                             |
 ----------------------------------------------------------------------------- 

 POTCAR:    PAW_PBE Se 06Sep2000                  
   VRHFIN =Se: s2p4                                                             
   LEXCH  = PE                                                                  
   EATOM  =   257.1286 eV,   18.8984 Ry                                         
                                                                                
   TITEL  = PAW_PBE Se 06Sep2000                                                
   LULTRA =        F    use ultrasoft PP ?                                      
   IUNSCR =        1    unscreen: 0-lin 1-nonlin 2-no                           
   RPACOR =    1.900    partial core radius                                     
   POMASS =   78.960; ZVAL   =    6.000    mass and valenz                      
   RCORE  =    2.100    outmost cutoff radius                                   
   RWIGS  =    2.200; RWIGS  =    1.164    wigner-seitz radius (au A)           
   ENMAX  =  211.555; ENMIN  =  158.666 eV                                      
   ICORE  =        3    local potential                                         
   LCOR   =        T    correct aug charges                                     
   LPAW   =        T    paw PP                                                  
   EAUG   =  446.842                                                            
   DEXC   =    0.000                                                            
   RMAX   =    2.147    core radius for proj-oper                               
   RAUG   =    1.300    factor for augmentation sphere                          
   RDEP   =    2.177    radius for radial grids                                 
   RDEPT  =    1.928    core radius for aug-charge                              
                                                                                
   Atomic configuration                                                         
   10 entries                                                                   
     n  l   j            E        occ.                                          
     1  0  0.50    -12503.4787   2.0000                                         
     2  0  0.50     -1606.9547   2.0000                                         
     2  1  1.50     -1413.3140   6.0000                                         
     3  0  0.50      -213.4885   2.0000                                         
     3  1  1.50      -152.9538   6.0000                                         
     3  2  2.50       -53.1221  10.0000                                         
     4  0  0.50       -17.2865   2.0000                                         
     4  1  0.50        -6.5110   4.0000                                         
     4  2  2.50        -6.8029   0.0000                                         
     4  3  2.50        -6.8029   0.0000                                         
   Description                                                                  
     l       E           TYP  RCUT    TYP  RCUT                                 
     0    -17.2865377     23  2.100                                             
     0    -15.3094411     23  2.100                                             
     1     -6.5110275     23  2.100                                             
     1     -0.0695192     23  2.100                                             
     2     -6.8029130     23  2.100                                             
     3     -1.3605826      7  2.100                                             
  local pseudopotential read in
  partial core-charges read in
  partial kinetic energy density read in
  atomic valenz-charges read in
  non local Contribution for L=           0  read in
    real space projection operators read in
  non local Contribution for L=           0  read in
    real space projection operators read in
  non local Contribution for L=           1  read in
    real space projection operators read in
  non local Contribution for L=           1  read in
    real space projection operators read in
  non local Contribution for L=           2  read in
    real space projection operators read in
    PAW grid and wavefunctions read in
 
   number of l-projection  operators is LMAX  =           5
   number of lm-projection operators is LMMAX =          13
 
 POTCAR:    PAW_PBE Ag 02Apr2005                  
   VRHFIN =Ag : s1 d10                                                          
   LEXCH  = PE                                                                  
   EATOM  =  1037.2675 eV,   76.2370 Ry                                         
                                                                                
   TITEL  = PAW_PBE Ag 02Apr2005                                                
   LULTRA =        F    use ultrasoft PP ?                                      
   IUNSCR =        1    unscreen: 0-lin 1-nonlin 2-no                           
   RPACOR =    2.000    partial core radius                                     
   POMASS =  107.868; ZVAL   =   11.000    mass and valenz                      
   RCORE  =    2.500    outmost cutoff radius                                   
   RWIGS  =    2.840; RWIGS  =    1.503    wigner-seitz radius (au A)           
   ENMAX  =  249.844; ENMIN  =  187.383 eV                                      
   ICORE  =        3    local potential                                         
   LCOR   =        T    correct aug charges                                     
   LPAW   =        T    paw PP                                                  
   EAUG   =  412.496                                                            
   DEXC   =    0.000                                                            
   RMAX   =    2.560    core radius for proj-oper                               
   RAUG   =    1.300    factor for augmentation sphere                          
   RDEP   =    2.576    radius for radial grids                                 
   RDEPT  =    2.072    core radius for aug-charge                              
                                                                                
   Atomic configuration                                                         
   12 entries                                                                   
     n  l   j            E        occ.                                          
     1  0  0.50    -25324.9161   2.0000                                         
     2  0  0.50     -3728.5341   2.0000                                         
     2  1  1.50     -3344.0404   6.0000                                         
     3  0  0.50      -683.5581   2.0000                                         
     3  1  1.50      -557.3225   6.0000                                         
     3  2  2.50      -358.3853  10.0000                                         
     4  0  0.50       -95.0341   2.0000                                         
     4  1  1.50       -58.5511   6.0000                                         
     4  2  2.50        -7.4440  10.0000                                         
     5  0  0.50        -4.4045   1.0000                                         
     5  1  0.50        -1.3606   0.0000                                         
     4  3  2.50        -1.3606   0.0000                                         
   Description                                                                  
     l       E           TYP  RCUT    TYP  RCUT                                 
     2     -7.4439781     23  2.400                                             
     2     -8.8045607     23  2.400                                             
     0     -4.4044681     23  2.400                                             
     0      1.9520038     23  2.400                                             
     1     -1.3605826     23  2.500                                             
     1     27.2116520     23  2.500                                             
     3     -4.0817478     23  2.400                                             
  local pseudopotential read in
  partial core-charges read in
  partial kinetic energy density read in
  atomic valenz-charges read in
  non local Contribution for L=           2  read in
    real space projection operators read in
  non local Contribution for L=           2  read in
    real space projection operators read in
  non local Contribution for L=           0  read in
    real space projection operators read in
  non local Contribution for L=           0  read in
    real space projection operators read in
  non local Contribution for L=           1  read in
    real space projection operators read in
  non local Contribution for L=           1  read in
    real space projection operators read in
    PAW grid and wavefunctions read in
 
   number of l-projection  operators is LMAX  =           6
   number of lm-projection operators is LMMAX =          18
 

 ----------------------------------------------------------------------------- 
|                                                                             |
|  ADVICE TO THIS USER RUNNING 'VASP/VAMP'   (HEAR YOUR MASTER'S VOICE ...):  |
|                                                                             |
|      You have a (more or less) 'large supercell' and for larger cells       |
|      it might be more efficient to use real space projection opertators     |
|      So try LREAL= Auto  in the INCAR   file.                               |
|      Mind:          For very  accurate calculation you might also keep the  |
|      reciprocal projection scheme          (i.e. LREAL=.FALSE.)             |
|                                                                             |
 ----------------------------------------------------------------------------- 


 ----------------------------------------------------------------------------- 
|                                                                             |
|  ADVICE TO THIS USER RUNNING 'VASP/VAMP'   (HEAR YOUR MASTER'S VOICE ...):  |
|                                                                             |
|      You enforced a specific xc-type in the INCAR file,                     |
|      a different type was found on the POTCAR file                          |
|          I HOPE YOU KNOW, WHAT YOU ARE  DOING                               |
|                                                                             |
 ----------------------------------------------------------------------------- 

  PAW_PBE Se 06Sep2000                  :
 energy of atom  1       EATOM= -257.1286
 kinetic energy error for atom=    0.0005 (will be added to EATOM!!)
  PAW_PBE Ag 02Apr2005                  :
 energy of atom  2       EATOM=-1037.2675
 kinetic energy error for atom=    0.0011 (will be added to EATOM!!)
 
 
 POSCAR: # Compound: Se64Ag128. Old comment: Ag2S
  positions in direct lattice
  No initial velocities read in
 exchange correlation table for  LEXCH =       14
   RHO(1)=    0.500       N(1)  =     2000
   RHO(2)=  100.500       N(2)  =     4000
 


--------------------------------------------------------------------------------------------------------


 ion  position               nearest neighbor table
   1  0.080  0.124  0.078-  65 2.62  81 2.62 129 2.71 185 2.72 188 2.77 149 2.83 121 2.92
   2  0.330  0.124  0.078-  82 2.62  66 2.62 130 2.71 186 2.72 185 2.77 150 2.83 122 2.92
   3  0.580  0.124  0.078-  83 2.62  67 2.62 131 2.71 187 2.72 186 2.77 151 2.83 123 2.92
   4  0.830  0.124  0.078-  84 2.62  68 2.62 132 2.71 188 2.72 187 2.77 152 2.83 124 2.92
   5  0.080  0.624  0.078-  85 2.62  69 2.62 133 2.71 189 2.72 192 2.77 145 2.83 125 2.92
   6  0.330  0.624  0.078-  86 2.62  70 2.62 134 2.71 190 2.72 189 2.77 146 2.83 126 2.92
   7  0.580  0.624  0.078-  87 2.62  71 2.62 135 2.71 191 2.72 190 2.77 147 2.83 127 2.92
   8  0.830  0.624  0.078-  88 2.62  72 2.62 136 2.71 192 2.72 191 2.77 148 2.83 128 2.92
   9  0.080  0.124  0.578-  89 2.62  73 2.62 137 2.71 177 2.72 180 2.77 157 2.83 113 2.92
  10  0.330  0.124  0.578-  90 2.62  74 2.62 138 2.71 178 2.72 177 2.77 158 2.83 114 2.92
  11  0.580  0.124  0.578-  91 2.62  75 2.62 139 2.71 179 2.72 178 2.77 159 2.83 115 2.92
  12  0.830  0.124  0.578-  92 2.62  76 2.62 140 2.71 180 2.72 179 2.77 160 2.83 116 2.92
  13  0.080  0.624  0.578-  93 2.62  77 2.62 141 2.71 181 2.72 184 2.77 153 2.83 117 2.92
  14  0.330  0.624  0.578-  94 2.62  78 2.62 142 2.71 182 2.72 181 2.77 154 2.83 118 2.92
  15  0.580  0.624  0.578-  95 2.62  79 2.62 143 2.71 183 2.72 182 2.77 155 2.83 119 2.92
  16  0.830  0.624  0.578-  96 2.62  80 2.62 144 2.71 184 2.72 183 2.77 156 2.83 120 2.92
  17  0.045  0.374  0.172-  72 2.62  84 2.62 145 2.71 164 2.72 161 2.77 129 2.83  97 2.92
  18  0.295  0.374  0.172-  69 2.62  81 2.62 146 2.71 161 2.72 162 2.77 130 2.83  98 2.92
  19  0.545  0.374  0.172-  70 2.62  82 2.62 147 2.71 162 2.72 163 2.77 131 2.83  99 2.92
  20  0.795  0.374  0.172-  71 2.62  83 2.62 148 2.71 163 2.72 164 2.77 132 2.83 100 2.92
  21  0.045  0.874  0.172-  68 2.62  88 2.62 149 2.71 168 2.72 165 2.77 133 2.83 101 2.92
  22  0.295  0.874  0.172-  85 2.62  65 2.62 150 2.71 165 2.72 166 2.77 134 2.83 102 2.92
  23  0.545  0.874  0.172-  66 2.62  86 2.62 151 2.71 166 2.72 167 2.77 135 2.83 103 2.92
  24  0.795  0.874  0.172-  67 2.62  87 2.62 152 2.71 167 2.72 168 2.77 136 2.83 104 2.92
  25  0.045  0.374  0.672-  80 2.62  92 2.62 153 2.71 172 2.72 169 2.77 137 2.83 105 2.92
  26  0.295  0.374  0.672-  77 2.62  89 2.62 154 2.71 169 2.72 170 2.77 138 2.83 106 2.92
  27  0.545  0.374  0.672-  78 2.62  90 2.62 155 2.71 170 2.72 171 2.77 139 2.83 107 2.92
  28  0.795  0.374  0.672-  79 2.62  91 2.62 156 2.71 171 2.72 172 2.77 140 2.83 108 2.92
  29  0.045  0.874  0.672-  76 2.62  96 2.62 157 2.71 176 2.72 173 2.77 141 2.83 109 2.92
  30  0.295  0.874  0.672-  73 2.62  93 2.62 158 2.71 173 2.72 174 2.77 142 2.83 110 2.92
  31  0.545  0.874  0.672-  74 2.62  94 2.62 159 2.71 174 2.72 175 2.77 143 2.83 111 2.92
  32  0.795  0.874  0.672-  75 2.62  95 2.62 160 2.71 175 2.72 176 2.77 144 2.83 112 2.92
  33  0.170  0.376  0.422- 113 2.62  97 2.62 161 2.71 153 2.72 154 2.77 181 2.83  89 2.92
  34  0.420  0.376  0.422- 114 2.62  98 2.62 162 2.71 154 2.72 155 2.77 182 2.83  90 2.92
  35  0.670  0.376  0.422- 115 2.62  99 2.62 163 2.71 155 2.72 156 2.77 183 2.83  91 2.92
  36  0.920  0.376  0.422- 116 2.62 100 2.62 164 2.71 156 2.72 153 2.77 184 2.83  92 2.92
  37  0.170  0.876  0.422- 117 2.62 101 2.62 165 2.71 157 2.72 158 2.77 177 2.83  93 2.92
  38  0.420  0.876  0.422- 118 2.62 102 2.62 166 2.71 158 2.72 159 2.77 178 2.83  94 2.92
  39  0.670  0.876  0.422- 119 2.62 103 2.62 167 2.71 159 2.72 160 2.77 179 2.83  95 2.92
  40  0.920  0.876  0.422- 120 2.62 104 2.62 168 2.71 160 2.72 157 2.77 180 2.83  96 2.92
  41  0.170  0.376  0.922- 121 2.62 105 2.62 169 2.71 145 2.72 146 2.77 189 2.83  81 2.92
  42  0.420  0.376  0.922- 122 2.62 106 2.62 170 2.71 146 2.72 147 2.77 190 2.83  82 2.92
  43  0.670  0.376  0.922- 123 2.62 107 2.62 171 2.71 147 2.72 148 2.77 191 2.83  83 2.92
  44  0.920  0.376  0.922- 124 2.62 108 2.62 172 2.71 148 2.72 145 2.77 192 2.83  84 2.92
  45  0.170  0.876  0.922- 125 2.62 109 2.62 173 2.71 149 2.72 150 2.77 185 2.83  85 2.92
  46  0.420  0.876  0.922- 126 2.62 110 2.62 174 2.71 150 2.72 151 2.77 186 2.83  86 2.92
  47  0.670  0.876  0.922- 127 2.62 111 2.62 175 2.71 151 2.72 152 2.77 187 2.83  87 2.92
  48  0.920  0.876  0.922- 128 2.62 112 2.62 176 2.71 152 2.72 149 2.77 188 2.83  88 2.92
  49  0.205  0.126  0.328- 102 2.62 114 2.62 177 2.71 130 2.72 129 2.77 161 2.83  65 2.91
  50  0.455  0.126  0.328- 103 2.62 115 2.62 178 2.71 131 2.72 130 2.77 162 2.83  66 2.92
  51  0.705  0.126  0.328- 104 2.62 116 2.62 179 2.71 132 2.72 131 2.77 163 2.83  67 2.92
  52  0.955  0.126  0.328- 101 2.62 113 2.62 180 2.71 129 2.72 132 2.77 164 2.83  68 2.92
  53  0.205  0.626  0.328-  98 2.62 118 2.62 181 2.71 134 2.72 133 2.77 165 2.83  69 2.92
  54  0.455  0.626  0.328-  99 2.62 119 2.62 182 2.71 135 2.72 134 2.77 166 2.83  70 2.92
  55  0.705  0.626  0.328- 100 2.62 120 2.62 183 2.71 136 2.72 135 2.77 167 2.83  71 2.92
  56  0.955  0.626  0.328-  97 2.62 117 2.62 184 2.71 133 2.72 136 2.77 168 2.83  72 2.92
  57  0.205  0.126  0.828- 110 2.62 122 2.62 185 2.71 138 2.72 137 2.77 169 2.83  73 2.92
  58  0.455  0.126  0.828- 111 2.62 123 2.62 186 2.71 139 2.72 138 2.77 170 2.83  74 2.92
  59  0.705  0.126  0.828- 112 2.62 124 2.62 187 2.71 140 2.72 139 2.77 171 2.83  75 2.92
  60  0.955  0.126  0.828- 109 2.62 121 2.62 188 2.71 137 2.72 140 2.77 172 2.83  76 2.92
  61  0.205  0.626  0.828- 106 2.62 126 2.62 189 2.71 142 2.72 141 2.77 173 2.83  77 2.92
  62  0.455  0.626  0.828- 107 2.62 127 2.62 190 2.71 143 2.72 142 2.77 174 2.83  78 2.92
  63  0.705  0.626  0.828- 108 2.62 128 2.62 191 2.71 144 2.72 143 2.77 175 2.83  79 2.92
  64  0.955  0.626  0.828- 105 2.62 125 2.62 192 2.71 141 2.72 144 2.77 176 2.83  80 2.92
  65  0.192  0.012  0.170-   1 2.62  22 2.62 102 2.82  49 2.91 185 3.01 149 3.01 165 3.05 130 3.06

  66  0.442  0.011  0.170-  23 2.62   2 2.62 103 2.82  50 2.92 150 3.01 186 3.01 166 3.04 131 3.07

  67  0.692  0.011  0.170-  24 2.62   3 2.62 104 2.82  51 2.92 151 3.01 187 3.01 167 3.04 132 3.07

  68  0.942  0.011  0.170-  21 2.62   4 2.62 101 2.82  52 2.92 152 3.01 188 3.01 168 3.04 129 3.07

  69  0.192  0.511  0.170-  18 2.62   5 2.62  98 2.82  53 2.92 145 3.01 189 3.01 161 3.04 134 3.07

  70  0.442  0.511  0.170-  19 2.62   6 2.62  99 2.82  54 2.92 146 3.01 190 3.01 162 3.04 135 3.07

  71  0.692  0.511  0.170-  20 2.62   7 2.62 100 2.82  55 2.92 147 3.01 191 3.01 163 3.04 136 3.07

  72  0.942  0.511  0.170-  17 2.62   8 2.62  97 2.82  56 2.92 148 3.01 192 3.01 164 3.04 133 3.07

  73  0.192  0.011  0.670-  30 2.62   9 2.62 110 2.82  57 2.92 157 3.01 177 3.01 173 3.04 138 3.07

  74  0.442  0.011  0.670-  31 2.62  10 2.62 111 2.82  58 2.92 158 3.01 178 3.01 174 3.04 139 3.07

  75  0.692  0.011  0.670-  32 2.62  11 2.62 112 2.82  59 2.92 159 3.01 179 3.01 175 3.04 140 3.07

  76  0.942  0.011  0.670-  29 2.62  12 2.62 109 2.82  60 2.92 160 3.01 180 3.01 176 3.04 137 3.07

  77  0.192  0.511  0.670-  26 2.62  13 2.62 106 2.82  61 2.92 153 3.01 181 3.01 169 3.04 142 3.07

  78  0.442  0.511  0.670-  27 2.62  14 2.62 107 2.82  62 2.92 154 3.01 182 3.01 170 3.04 143 3.07

  79  0.692  0.511  0.670-  28 2.62  15 2.62 108 2.82  63 2.92 155 3.01 183 3.01 171 3.04 144 3.07

  80  0.942  0.511  0.670-  25 2.62  16 2.62 105 2.82  64 2.92 156 3.01 184 3.01 172 3.04 141 3.07

  81  0.183  0.261  0.080-   1 2.62  18 2.62 121 2.82  41 2.92 130 3.01 161 3.01 185 3.04 145 3.07

  82  0.433  0.261  0.080-   2 2.62  19 2.62 122 2.82  42 2.92 131 3.01 162 3.01 186 3.04 146 3.07

  83  0.683  0.261  0.080-   3 2.62  20 2.62 123 2.82  43 2.92 132 3.01 163 3.01 187 3.04 147 3.07

  84  0.933  0.261  0.080-   4 2.62  17 2.62 124 2.82  44 2.92 129 3.01 164 3.01 188 3.04 148 3.07

  85  0.183  0.761  0.080-   5 2.62  22 2.62 125 2.82  45 2.92 134 3.01 165 3.01 189 3.04 149 3.07

  86  0.433  0.761  0.080-   6 2.62  23 2.62 126 2.82  46 2.92 135 3.01 166 3.01 190 3.04 150 3.07

  87  0.683  0.761  0.080-   7 2.62  24 2.62 127 2.82  47 2.92 136 3.01 167 3.01 191 3.04 151 3.07

  88  0.933  0.761  0.080-   8 2.62  21 2.62 128 2.82  48 2.92 133 3.01 168 3.01 192 3.04 152 3.07

  89  0.183  0.261  0.580-   9 2.62  26 2.62 113 2.82  33 2.92 138 3.01 169 3.01 177 3.04 153 3.07

  90  0.433  0.261  0.580-  10 2.62  27 2.62 114 2.82  34 2.92 139 3.01 170 3.01 178 3.04 154 3.07

  91  0.683  0.261  0.580-  11 2.62  28 2.62 115 2.82  35 2.92 140 3.01 171 3.01 179 3.04 155 3.07

  92  0.933  0.261  0.580-  12 2.62  25 2.62 116 2.82  36 2.92 137 3.01 172 3.01 180 3.04 156 3.07

  93  0.183  0.761  0.580-  13 2.62  30 2.62 117 2.82  37 2.92 142 3.01 173 3.01 181 3.04 157 3.07

  94  0.433  0.761  0.580-  14 2.62  31 2.62 118 2.82  38 2.92 143 3.01 174 3.01 182 3.04 158 3.07

  95  0.683  0.761  0.580-  15 2.62  32 2.62 119 2.82  39 2.92 144 3.01 175 3.01 183 3.04 159 3.07

  96  0.933  0.761  0.580-  16 2.62  29 2.62 120 2.82  40 2.92 141 3.01 176 3.01 184 3.04 160 3.07

  97  0.058  0.489  0.330-  56 2.62  33 2.62  72 2.82  17 2.92 181 3.01 153 3.01 133 3.04 164 3.07

  98  0.308  0.489  0.330-  53 2.62  34 2.62  69 2.82  18 2.92 182 3.01 154 3.01 134 3.04 161 3.07

  99  0.558  0.489  0.330-  54 2.62  35 2.62  70 2.82  19 2.92 183 3.01 155 3.01 135 3.04 162 3.07

 100  0.808  0.489  0.330-  55 2.62  36 2.62  71 2.82  20 2.92 184 3.01 156 3.01 136 3.04 163 3.07

 101  0.058  0.989  0.330-  52 2.62  37 2.62  68 2.82  21 2.92 177 3.01 157 3.01 129 3.04 168 3.07

 102  0.308  0.989  0.330-  49 2.62  38 2.62  65 2.82  22 2.92 178 3.01 158 3.01 130 3.04 165 3.07

 103  0.558  0.989  0.330-  50 2.62  39 2.62  66 2.82  23 2.92 179 3.01 159 3.01 131 3.04 166 3.07

 104  0.808  0.989  0.330-  51 2.62  40 2.62  67 2.82  24 2.92 180 3.01 160 3.01 132 3.04 167 3.07

 105  0.058  0.489  0.830-  64 2.62  41 2.62  80 2.82  25 2.92 189 3.01 145 3.01 141 3.04 172 3.07

 106  0.308  0.489  0.830-  61 2.62  42 2.62  77 2.82  26 2.92 190 3.01 146 3.01 142 3.04 169 3.07

 107  0.558  0.489  0.830-  62 2.62  43 2.62  78 2.82  27 2.92 191 3.01 147 3.01 143 3.04 170 3.07

 108  0.808  0.489  0.830-  63 2.62  44 2.62  79 2.82  28 2.92 192 3.01 148 3.01 144 3.04 171 3.07

 109  0.058  0.989  0.830-  60 2.62  45 2.62  76 2.82  29 2.92 185 3.01 149 3.01 137 3.04 176 3.07

 110  0.308  0.989  0.830-  57 2.62  46 2.62  73 2.82  30 2.92 186 3.01 150 3.01 138 3.04 173 3.07

 111  0.558  0.989  0.830-  58 2.62  47 2.62  74 2.82  31 2.92 187 3.01 151 3.01 139 3.04 174 3.07

 112  0.808  0.989  0.830-  59 2.62  48 2.62  75 2.82  32 2.92 188 3.01 152 3.01 140 3.04 175 3.07

 113  0.067  0.239  0.420-  33 2.62  52 2.62  89 2.82   9 2.92 164 3.01 129 3.01 153 3.04 177 3.07

 114  0.317  0.239  0.420-  34 2.62  49 2.62  90 2.82  10 2.92 161 3.01 130 3.01 154 3.04 178 3.07

 115  0.567  0.239  0.420-  35 2.62  50 2.62  91 2.82  11 2.92 162 3.01 131 3.01 155 3.04 179 3.07

 116  0.817  0.239  0.420-  36 2.62  51 2.62  92 2.82  12 2.92 163 3.01 132 3.01 156 3.04 180 3.07

 117  0.067  0.739  0.420-  37 2.62  56 2.62  93 2.82  13 2.92 168 3.01 133 3.01 157 3.04 181 3.07

 118  0.317  0.739  0.420-  38 2.62  53 2.62  94 2.82  14 2.92 165 3.01 134 3.01 158 3.04 182 3.07

 119  0.567  0.739  0.420-  39 2.62  54 2.62  95 2.82  15 2.92 166 3.01 135 3.01 159 3.04 183 3.07

 120  0.817  0.739  0.420-  40 2.62  55 2.62  96 2.82  16 2.92 167 3.01 136 3.01 160 3.04 184 3.07

 121  0.067  0.239  0.920-  41 2.62  60 2.62  81 2.82   1 2.92 172 3.01 137 3.01 145 3.04 185 3.07

 122  0.317  0.239  0.920-  42 2.62  57 2.62  82 2.82   2 2.92 169 3.01 138 3.01 146 3.04 186 3.07

 123  0.567  0.239  0.920-  43 2.62  58 2.62  83 2.82   3 2.92 170 3.01 139 3.01 147 3.04 187 3.07

 124  0.817  0.239  0.920-  44 2.62  59 2.62  84 2.82   4 2.92 171 3.01 140 3.01 148 3.04 188 3.07

 125  0.067  0.739  0.920-  45 2.62  64 2.62  85 2.82   5 2.92 176 3.01 141 3.01 149 3.04 189 3.07

 126  0.317  0.739  0.920-  46 2.62  61 2.62  86 2.82   6 2.92 173 3.01 142 3.01 150 3.04 190 3.07

 127  0.567  0.739  0.920-  47 2.62  62 2.62  87 2.82   7 2.92 174 3.01 143 3.01 151 3.04 191 3.07

 128  0.817  0.739  0.920-  48 2.62  63 2.62  88 2.82   8 2.92 175 3.01 144 3.01 152 3.04 192 3.07

 129  0.056  0.180  0.234-   1 2.71  52 2.72  49 2.77  17 2.83 164 2.90  84 3.01 113 3.01 161 3.03
                           101 3.04  68 3.07
 130  0.306  0.180  0.234-   2 2.71  49 2.72  50 2.77  18 2.83 161 2.90  81 3.01 114 3.01 162 3.03
                           102 3.04  65 3.06
 131  0.556  0.180  0.234-   3 2.71  50 2.72  51 2.77  19 2.83 162 2.90  82 3.01 115 3.01 163 3.03
                           103 3.04  66 3.07
 132  0.806  0.180  0.234-   4 2.71  51 2.72  52 2.77  20 2.83 163 2.90  83 3.01 116 3.01 164 3.03
                           104 3.04  67 3.07
 133  0.056  0.680  0.234-   5 2.71  56 2.72  53 2.77  21 2.83 168 2.90  88 3.01 117 3.01 165 3.03
                            97 3.04  72 3.07
 134  0.306  0.680  0.234-   6 2.71  53 2.72  54 2.77  22 2.83 165 2.90  85 3.01 118 3.01 166 3.03
                            98 3.04  69 3.07
 135  0.556  0.680  0.234-   7 2.71  54 2.72  55 2.77  23 2.83 166 2.90  86 3.01 119 3.01 167 3.03
                            99 3.04  70 3.07
 136  0.806  0.680  0.234-   8 2.71  55 2.72  56 2.77  24 2.83 167 2.90  87 3.01 120 3.01 168 3.03
                           100 3.04  71 3.07
 137  0.056  0.180  0.734-   9 2.71  60 2.72  57 2.77  25 2.83 172 2.90  92 3.01 121 3.01 169 3.03
                           109 3.04  76 3.07
 138  0.306  0.180  0.734-  10 2.71  57 2.72  58 2.77  26 2.83 169 2.90  89 3.01 122 3.01 170 3.03
                           110 3.04  73 3.07
 139  0.556  0.180  0.734-  11 2.71  58 2.72  59 2.77  27 2.83 170 2.90  90 3.01 123 3.01 171 3.03
                           111 3.04  74 3.07
 140  0.806  0.180  0.734-  12 2.71  59 2.72  60 2.77  28 2.83 171 2.90  91 3.01 124 3.01 172 3.03
                           112 3.04  75 3.07
 141  0.056  0.680  0.734-  13 2.71  64 2.72  61 2.77  29 2.83 176 2.90  96 3.01 125 3.01 173 3.03
                           105 3.04  80 3.07
 142  0.306  0.680  0.734-  14 2.71  61 2.72  62 2.77  30 2.83 173 2.90  93 3.01 126 3.01 174 3.03
                           106 3.04  77 3.07
 143  0.556  0.680  0.734-  15 2.71  62 2.72  63 2.77  31 2.83 174 2.90  94 3.01 127 3.01 175 3.03
                           107 3.04  78 3.07
 144  0.806  0.680  0.734-  16 2.71  63 2.72  64 2.77  32 2.83 175 2.90  95 3.01 128 3.01 176 3.03
                           108 3.04  79 3.07
 145  0.069  0.430  0.016-  17 2.71  41 2.72  44 2.77   5 2.83 189 2.90  69 3.01 105 3.01 192 3.03
                           121 3.04  81 3.07
 146  0.319  0.430  0.016-  18 2.71  42 2.72  41 2.77   6 2.83 190 2.90  70 3.01 106 3.01 189 3.03
                           122 3.04  82 3.07
 147  0.569  0.430  0.016-  19 2.71  43 2.72  42 2.77   7 2.83 191 2.90  71 3.01 107 3.01 190 3.03
                           123 3.04  83 3.07
 148  0.819  0.430  0.016-  20 2.71  44 2.72  43 2.77   8 2.83 192 2.90  72 3.01 108 3.01 191 3.03
                           124 3.04  84 3.07
 149  0.069  0.930  0.016-  21 2.71  45 2.72  48 2.77   1 2.83 185 2.90  65 3.01 109 3.01 188 3.03
                           125 3.04  85 3.07
 150  0.319  0.930  0.016-  22 2.71  46 2.72  45 2.77   2 2.83 186 2.90  66 3.01 110 3.01 185 3.03
                           126 3.04  86 3.07
 151  0.569  0.930  0.016-  23 2.71  47 2.72  46 2.77   3 2.83 187 2.90  67 3.01 111 3.01 186 3.03
                           127 3.04  87 3.07
 152  0.819  0.930  0.016-  24 2.71  48 2.72  47 2.77   4 2.83 188 2.90  68 3.01 112 3.01 187 3.03
                           128 3.04  88 3.07
 153  0.069  0.430  0.516-  25 2.71  33 2.72  36 2.77  13 2.83 181 2.90  77 3.01  97 3.01 184 3.03
                           113 3.04  89 3.07
 154  0.319  0.430  0.516-  26 2.71  34 2.72  33 2.77  14 2.83 182 2.90  78 3.01  98 3.01 181 3.03
                           114 3.04  90 3.07
 155  0.569  0.430  0.516-  27 2.71  35 2.72  34 2.77  15 2.83 183 2.90  79 3.01  99 3.01 182 3.03
                           115 3.04  91 3.07
 156  0.819  0.430  0.516-  28 2.71  36 2.72  35 2.77  16 2.83 184 2.90  80 3.01 100 3.01 183 3.03
                           116 3.04  92 3.07
 157  0.069  0.930  0.516-  29 2.71  37 2.72  40 2.77   9 2.83 177 2.90  73 3.01 101 3.01 180 3.03
                           117 3.04  93 3.07
 158  0.319  0.930  0.516-  30 2.71  38 2.72  37 2.77  10 2.83 178 2.90  74 3.01 102 3.01 177 3.03
                           118 3.04  94 3.07
 159  0.569  0.930  0.516-  31 2.71  39 2.72  38 2.77  11 2.83 179 2.90  75 3.01 103 3.01 178 3.03
                           119 3.04  95 3.07
 160  0.819  0.930  0.516-  32 2.71  40 2.72  39 2.77  12 2.83 180 2.90  76 3.01 104 3.01 179 3.03
                           120 3.04  96 3.07
 161  0.194  0.320  0.266-  33 2.71  18 2.72  17 2.77  49 2.83 130 2.90 114 3.01  81 3.01 129 3.03
                            69 3.04  98 3.07
 162  0.444  0.320  0.266-  34 2.71  19 2.72  18 2.77  50 2.83 131 2.90 115 3.01  82 3.01 130 3.03
                            70 3.04  99 3.07
 163  0.694  0.320  0.266-  35 2.71  20 2.72  19 2.77  51 2.83 132 2.90 116 3.01  83 3.01 131 3.03
                            71 3.04 100 3.07
 164  0.944  0.320  0.266-  36 2.71  17 2.72  20 2.77  52 2.83 129 2.90 113 3.01  84 3.01 132 3.03
                            72 3.04  97 3.07
 165  0.194  0.820  0.266-  37 2.71  22 2.72  21 2.77  53 2.83 134 2.90 118 3.01  85 3.01 133 3.03
                            65 3.05 102 3.07
 166  0.444  0.820  0.266-  38 2.71  23 2.72  22 2.77  54 2.83 135 2.90 119 3.01  86 3.01 134 3.03
                            66 3.04 103 3.07
 167  0.694  0.820  0.266-  39 2.71  24 2.72  23 2.77  55 2.83 136 2.90 120 3.01  87 3.01 135 3.03
                            67 3.04 104 3.07
 168  0.944  0.820  0.266-  40 2.71  21 2.72  24 2.77  56 2.83 133 2.90 117 3.01  88 3.01 136 3.03
                            68 3.04 101 3.07
 169  0.194  0.320  0.766-  41 2.71  26 2.72  25 2.77  57 2.83 138 2.90 122 3.01  89 3.01 137 3.03
                            77 3.04 106 3.07
 170  0.444  0.320  0.766-  42 2.71  27 2.72  26 2.77  58 2.83 139 2.90 123 3.01  90 3.01 138 3.03
                            78 3.04 107 3.07
 171  0.694  0.320  0.766-  43 2.71  28 2.72  27 2.77  59 2.83 140 2.90 124 3.01  91 3.01 139 3.03
                            79 3.04 108 3.07
 172  0.944  0.320  0.766-  44 2.71  25 2.72  28 2.77  60 2.83 137 2.90 121 3.01  92 3.01 140 3.03
                            80 3.04 105 3.07
 173  0.194  0.820  0.766-  45 2.71  30 2.72  29 2.77  61 2.83 142 2.90 126 3.01  93 3.01 141 3.03
                            73 3.04 110 3.07
 174  0.444  0.820  0.766-  46 2.71  31 2.72  30 2.77  62 2.83 143 2.90 127 3.01  94 3.01 142 3.03
                            74 3.04 111 3.07
 175  0.694  0.820  0.766-  47 2.71  32 2.72  31 2.77  63 2.83 144 2.90 128 3.01  95 3.01 143 3.03
                            75 3.04 112 3.07
 176  0.944  0.820  0.766-  48 2.71  29 2.72  32 2.77  64 2.83 141 2.90 125 3.01  96 3.01 144 3.03
                            76 3.04 109 3.07
 177  0.181  0.070  0.484-  49 2.71   9 2.72  10 2.77  37 2.83 157 2.90 101 3.01  73 3.01 158 3.03
                            89 3.04 113 3.07
 178  0.431  0.070  0.484-  50 2.71  10 2.72  11 2.77  38 2.83 158 2.90 102 3.01  74 3.01 159 3.03
                            90 3.04 114 3.07
 179  0.681  0.070  0.484-  51 2.71  11 2.72  12 2.77  39 2.83 159 2.90 103 3.01  75 3.01 160 3.03
                            91 3.04 115 3.07
 180  0.931  0.070  0.484-  52 2.71  12 2.72   9 2.77  40 2.83 160 2.90 104 3.01  76 3.01 157 3.03
                            92 3.04 116 3.07
 181  0.181  0.570  0.484-  53 2.71  13 2.72  14 2.77  33 2.83 153 2.90  97 3.01  77 3.01 154 3.03
                            93 3.04 117 3.07
 182  0.431  0.570  0.484-  54 2.71  14 2.72  15 2.77  34 2.83 154 2.90  98 3.01  78 3.01 155 3.03
                            94 3.04 118 3.07
 183  0.681  0.570  0.484-  55 2.71  15 2.72  16 2.77  35 2.83 155 2.90  99 3.01  79 3.01 156 3.03
                            95 3.04 119 3.07
 184  0.931  0.570  0.484-  56 2.71  16 2.72  13 2.77  36 2.83 156 2.90 100 3.01  80 3.01 153 3.03
                            96 3.04 120 3.07
 185  0.181  0.070  0.984-  57 2.71   1 2.72   2 2.77  45 2.83 149 2.90 109 3.01  65 3.01 150 3.03
                            81 3.04 121 3.07
 186  0.431  0.070  0.984-  58 2.71   2 2.72   3 2.77  46 2.83 150 2.90 110 3.01  66 3.01 151 3.03
                            82 3.04 122 3.07
 187  0.681  0.070  0.984-  59 2.71   3 2.72   4 2.77  47 2.83 151 2.90 111 3.01  67 3.01 152 3.03
                            83 3.04 123 3.07
 188  0.931  0.070  0.984-  60 2.71   4 2.72   1 2.77  48 2.83 152 2.90 112 3.01  68 3.01 149 3.03
                            84 3.04 124 3.07
 189  0.181  0.570  0.984-  61 2.71   5 2.72   6 2.77  41 2.83 145 2.90 105 3.01  69 3.01 146 3.03
                            85 3.04 125 3.07
 190  0.431  0.570  0.984-  62 2.71   6 2.72   7 2.77  42 2.83 146 2.90 106 3.01  70 3.01 147 3.03
                            86 3.04 126 3.07
 191  0.681  0.570  0.984-  63 2.71   7 2.72   8 2.77  43 2.83 147 2.90 107 3.01  71 3.01 148 3.03
                            87 3.04 127 3.07
 192  0.931  0.570  0.984-  64 2.71   8 2.72   5 2.77  44 2.83 148 2.90 108 3.01  72 3.01 145 3.03
                            88 3.04 128 3.07
 
  LATTYP: Found a simple monoclinic cell.
 ALAT       =    20.3305321409
 B/A-ratio  =     0.6775603316
 C/A-ratio  =     1.5660874790
 COS(beta)  =    -0.9094095093
  
  Lattice vectors:
  
 A1 = ( -13.4429013200,   0.0000000000, -15.2518504200)
 A2 = (   0.0000000000, -13.7751621000,   0.0000000000)
 A3 = (   9.2114596400,   0.0000000000,  30.4777932800)


Analysis of symmetry for initial positions (statically):
=====================================================================
 Subroutine PRICEL returns:
 Original cell was already a primitive cell.
 

 Routine SETGRP: Setting up the symmetry group for a 
 simple monoclinic supercell.


 Subroutine GETGRP returns: Found  1 space group operations
 (whereof  1 operations were pure point group operations)
 out of a pool of  4 trial point group operations.


The static configuration has the point symmetry C_1 .


Analysis of symmetry for dynamics (positions and initial velocities):
=====================================================================
 Subroutine PRICEL returns:
 Original cell was already a primitive cell.
 

 Routine SETGRP: Setting up the symmetry group for a 
 simple monoclinic supercell.


 Subroutine GETGRP returns: Found  1 space group operations
 (whereof  1 operations were pure point group operations)
 out of a pool of  4 trial point group operations.


The dynamic configuration has the point symmetry C_1 .


 Subroutine INISYM returns: Found  1 space group operations
 (whereof  1 operations are pure point group operations),
 and found     1 'primitive' translations

 
 
 KPOINTS: # No comment                            

Automatic generation of k-mesh.
Space group operators:
 irot       det(A)        alpha          n_x          n_y          n_z        tau_x        tau_y        tau_z
    1     1.000000     0.000001     1.000000     0.000000     0.000000     0.000000     0.000000     0.000000
 
 Subroutine IBZKPT returns following result:
 ===========================================
 
 Found      8 irreducible k-points:
 
 Following reciprocal coordinates:
            Coordinates               Weight
  0.000000  0.000000  0.000000      1.000000
  0.500000  0.000000 -0.000000      1.000000
  0.000000  0.500000  0.000000      1.000000
  0.500000  0.500000 -0.000000      1.000000
 -0.000000  0.000000  0.500000      1.000000
  0.500000  0.000000  0.500000      1.000000
 -0.000000  0.500000  0.500000      1.000000
  0.500000  0.500000  0.500000      1.000000
 
 Following cartesian coordinates:
            Coordinates               Weight
  0.000000  0.000000  0.000000      1.000000
  0.028278  0.000000  0.007859      1.000000
  0.000000  0.036297  0.000000      1.000000
  0.028278  0.036297  0.007859      1.000000
 -0.000048  0.000000  0.032825      1.000000
  0.028230  0.000000  0.040684      1.000000
 -0.000048  0.036297  0.032825      1.000000
  0.028230  0.036297  0.040684      1.000000
 


--------------------------------------------------------------------------------------------------------




 Dimension of arrays:
   k-points           NKPTS =      8   k-points in BZ     NKDIM =      8   number of bands    NBANDS=   1075
   number of dos      NEDOS =    301   number of ions     NIONS =    192
   non local maximal  LDIM  =      6   non local SUM 2l+1 LMDIM =     18
   total plane-waves  NPLWV = ******
   max r-space proj   IRMAX =      1   max aug-charges    IRDMAX= 267456
   dimension x,y,z NGX =   150 NGY =  120 NGZ =  140
   dimension x,y,z NGXF=   300 NGYF=  240 NGZF=  280
   support grid    NGXF=   600 NGYF=  480 NGZF=  560
   ions per type =              64 128
   NGX,Y,Z   is equivalent  to a cutoff of  14.11, 14.48, 14.73 a.u.
   NGXF,Y,Z  is equivalent  to a cutoff of  28.22, 28.96, 29.46 a.u.

 SYSTEM =  unknown system                          
 POSCAR =  # Compound: Se64Ag128. Old comment: Ag2S

 Startparameter for this run:
   NWRITE =      2    write-flag & timer
   PREC   = accura    normal or accurate (medium, high low for compatibility)
   ISTART =      0    job   : 0-new  1-cont  2-samecut
   ICHARG =      1    charge: 1-file 2-atom 10-const
   ISPIN  =      1    spin polarized calculation?
   LNONCOLLINEAR =      F non collinear calculations
   LSORBIT =      F    spin-orbit coupling
   INIWAV =      1    electr: 0-lowe 1-rand  2-diag
   LASPH  =      T    aspherical Exc in radial PAW
   METAGGA=      F    non-selfconsistent MetaGGA calc.

 Electronic Relaxation 1
   ENCUT  =  650.0 eV  47.77 Ry    6.91 a.u.  36.74 28.64 32.85*2*pi/ulx,y,z
   ENINI  =  650.0     initial cutoff
   ENAUG  =  446.8 eV  augmentation charge cutoff
   NELM   =    200;   NELMIN=  8; NELMDL=  0     # of ELM steps 
   EDIFF  = 0.1E-07   stopping-criterion for ELM
   LREAL  =      F    real-space projection
   NLSPLINE    = F    spline interpolate recip. space projectors
   LCOMPAT=      F    compatible to vasp.4.4
   GGA_COMPAT  = T    GGA compatible to vasp.4.4-vasp.4.6
   LMAXPAW     = -100 max onsite density
   LMAXMIX     =    2 max onsite mixed and CHGCAR
   VOSKOWN=      0    Vosko Wilk Nusair interpolation
   ROPT   =    0.00000   0.00000
 Ionic relaxation
   EDIFFG = 0.1E-06   stopping-criterion for IOM
   NSW    =      0    number of steps for IOM
   NBLOCK =      1;   KBLOCK =      1    inner block; outer block 
   IBRION =     -1    ionic relax: 0-MD 1-quasi-New 2-CG
   NFREE  =      0    steps in history (QN), initial steepest desc. (CG)
   ISIF   =      3    stress and relaxation
   IWAVPR =     10    prediction:  0-non 1-charg 2-wave 3-comb
   ISYM   =      2    0-nonsym 1-usesym 2-fastsym
   LCORR  =      T    Harris-Foulkes like correction to forces

   POTIM  = 0.5000    time-step for ionic-motion
   TEIN   =    0.0    initial temperature
   TEBEG  =    0.0;   TEEND  =   0.0 temperature during run
   SMASS  =  -3.00    Nose mass-parameter (am)
   estimated Nose-frequenzy (Omega)   =  0.10E-29 period in steps =****** mass=  -0.714E-26a.u.
   SCALEE = 1.0000    scale energy and forces
   NPACO  =    256;   APACO  = 16.0  distance and # of slots for P.C.
   PSTRESS=    0.0 pullay stress

  Mass of Ions in am
   POMASS =  78.96107.87
  Ionic Valenz
   ZVAL   =   6.00 11.00
  Atomic Wigner-Seitz radii
   RWIGS  =  -1.00 -1.00
  virtual crystal weights 
   VCA    =   1.00  1.00
   NELECT =    1792.0000    total number of electrons
   NUPDOWN=      -1.0000    fix difference up-down

 DOS related values:
   EMIN   =  10.00;   EMAX   =-10.00  energy-range for DOS
   EFERMI =   0.00
   ISMEAR =     0;   SIGMA  =   0.05  broadening in eV -4-tet -1-fermi 0-gaus

 Electronic relaxation 2 (details)
   IALGO  =     38    algorithm
   LDIAG  =      T    sub-space diagonalisation (order eigenvalues)
   LSUBROT=      F    optimize rotation matrix (better conditioning)
   TURBO    =      0    0=normal 1=particle mesh
   IRESTART =      0    0=no restart 2=restart with 2 vectors
   NREBOOT  =      0    no. of reboots
   NMIN     =      0    reboot dimension
   EREF     =   0.00    reference energy to select bands
   IMIX   =      4    mixing-type and parameters
     AMIX     =   0.40;   BMIX     =  1.00
     AMIX_MAG =   1.60;   BMIX_MAG =  1.00
     AMIN     =   0.10
     WC   =   100.;   INIMIX=   1;  MIXPRE=   1;  MAXMIX= -45

 Intra band minimization:
   WEIMIN = 0.0000     energy-eigenvalue tresh-hold
   EBREAK =  0.23E-11  absolut break condition
   DEPER  =   0.30     relativ break condition  

   TIME   =   0.40     timestep for ELM

  volume/ion in A,a.u.               =      19.32       130.35
  Fermi-wavevector in a.u.,A,eV,Ry     =   1.284657  2.427649 22.454283  1.650343
  Thomas-Fermi vector in A             =   2.416838
 
 Write flags
   LWAVE        =      F    write WAVECAR
   LDOWNSAMPLE  =      F    k-point downsampling of WAVECAR
   LCHARG       =      T    write CHGCAR
   LVTOT        =      F    write LOCPOT, total local potential
   LVHAR        =      F    write LOCPOT, Hartree potential only
   LELF         =      F    write electronic localiz. function (ELF)
   LORBIT       =      0    0 simple, 1 ext, 2 COOP (PROOUT), +10 PAW based schemes


 Dipole corrections
   LMONO  =      F    monopole corrections only (constant potential shift)
   LDIPOL =      F    correct potential (dipole corrections)
   IDIPOL =      0    1-x, 2-y, 3-z, 4-all directions 
   EPSILON=  1.0000000 bulk dielectric constant

 Exchange correlation treatment:
   GGA     =    PS    GGA type
   LEXCH   =    14    internal setting for exchange type
   VOSKOWN=      0    Vosko Wilk Nusair interpolation
   LHFCALC =     F    Hartree Fock is set to
   LHFONE  =     F    Hartree Fock one center treatment
   AEXX    =    0.0000 exact exchange contribution

 Linear response parameters
   LEPSILON=     F    determine dielectric tensor
   LRPA    =     F    only Hartree local field effects (RPA)
   LNABLA  =     F    use nabla operator in PAW spheres
   LVEL    =     F    velocity operator in full k-point grid
   LINTERFAST=   F  fast interpolation
   KINTER  =     0    interpolate to denser k-point grid
   CSHIFT  =0.1000    complex shift for real part using Kramers Kronig
   OMEGAMAX=  -1.0    maximum frequency
   DEG_THRESHOLD= 0.2000000E-02 threshold for treating states as degnerate
   RTIME   =   -0.100 relaxation time in fs
  (WPLASMAI=    0.000 imaginary part of plasma frequency in eV, 0.658/RTIME)
   DFIELD  = 0.0000000 0.0000000 0.0000000 field for delta impulse in time
 
 Orbital magnetization related:
   ORBITALMAG=     F  switch on orbital magnetization
   LCHIMAG   =     F  perturbation theory with respect to B field
   DQ        =  0.001000  dq finite difference perturbation B field
   LLRAUG    =     F  two centre corrections for induced B field



--------------------------------------------------------------------------------------------------------


 Static calculation
 charge density and potential will be updated during run
 non-spin polarized calculation
 Variant of blocked Davidson
 Davidson routine will perform the subspace rotation
 perform sub-space diagonalisation
    after iterative eigenvector-optimisation
 modified Broyden-mixing scheme, WC =      100.0
 initial mixing is a Kerker type mixing with AMIX =  0.4000 and BMIX =      1.0000
 Hartree-type preconditioning will be used
 using additional bands          179
 reciprocal scheme for non local part
 use partial core corrections
 calculate Harris-corrections to forces 
   (improved forces if not selfconsistent)
 use gradient corrections 
 use of overlap-Matrix (Vanderbilt PP)
 Gauss-broadening in eV      SIGMA  =   0.05


--------------------------------------------------------------------------------------------------------


  energy-cutoff  :      650.00
  volume of cell :     3708.52
      direct lattice vectors                 reciprocal lattice vectors
    17.674343000  0.000000000  0.025907560     0.056556150  0.000000000  0.015717519
     0.000000000 13.775162100  0.000000000     0.000000000  0.072594427  0.000000000
    -4.231441680  0.000000000 15.225942860    -0.000096233  0.000000000  0.065650634

  length of vectors
    17.674361988 13.775162100 15.802988156     0.058699562  0.072594427  0.065650704


 
 k-points in units of 2pi/SCALE and weight: # No comment                            
   0.00000000  0.00000000  0.00000000       0.125
   0.02827808  0.00000000  0.00785876       0.125
   0.00000000  0.03629721  0.00000000       0.125
   0.02827808  0.03629721  0.00785876       0.125
  -0.00004812  0.00000000  0.03282532       0.125
   0.02822996  0.00000000  0.04068408       0.125
  -0.00004812  0.03629721  0.03282532       0.125
   0.02822996  0.03629721  0.04068408       0.125
 
 k-points in reciprocal lattice and weights: # No comment                            
   0.00000000  0.00000000  0.00000000       0.125
   0.50000000  0.00000000 -0.00000000       0.125
   0.00000000  0.50000000  0.00000000       0.125
   0.50000000  0.50000000 -0.00000000       0.125
  -0.00000000  0.00000000  0.50000000       0.125
   0.50000000  0.00000000  0.50000000       0.125
  -0.00000000  0.50000000  0.50000000       0.125
   0.50000000  0.50000000  0.50000000       0.125
 
 position of ions in fractional coordinates (direct lattice) 
   0.08031353  0.12413882  0.07841826
   0.33031353  0.12413882  0.07841826
   0.58031353  0.12413882  0.07841826
   0.83031353  0.12413882  0.07841826
   0.08031353  0.62413882  0.07841826
   0.33031353  0.62413882  0.07841826
   0.58031353  0.62413882  0.07841826
   0.83031353  0.62413882  0.07841826
   0.08031353  0.12413882  0.57841826
   0.33031353  0.12413882  0.57841826
   0.58031353  0.12413882  0.57841826
   0.83031353  0.12413882  0.57841826
   0.08031353  0.62413882  0.57841826
   0.33031353  0.62413882  0.57841826
   0.58031353  0.62413882  0.57841826
   0.83031353  0.62413882  0.57841826
   0.04468646  0.37413882  0.17158168
   0.29468646  0.37413882  0.17158168
   0.54468646  0.37413882  0.17158168
   0.79468646  0.37413882  0.17158168
   0.04468646  0.87413882  0.17158168
   0.29468646  0.87413882  0.17158168
   0.54468646  0.87413882  0.17158168
   0.79468646  0.87413882  0.17158168
   0.04468646  0.37413882  0.67158168
   0.29468646  0.37413882  0.67158168
   0.54468646  0.37413882  0.67158168
   0.79468646  0.37413882  0.67158168
   0.04468646  0.87413882  0.67158168
   0.29468646  0.87413882  0.67158168
   0.54468646  0.87413882  0.67158168
   0.79468646  0.87413882  0.67158168
   0.16968646  0.37586118  0.42158168
   0.41968646  0.37586118  0.42158168
   0.66968646  0.37586118  0.42158168
   0.91968646  0.37586118  0.42158168
   0.16968646  0.87586118  0.42158168
   0.41968646  0.87586118  0.42158168
   0.66968646  0.87586118  0.42158168
   0.91968646  0.87586118  0.42158168
   0.16968646  0.37586118  0.92158168
   0.41968646  0.37586118  0.92158168
   0.66968646  0.37586118  0.92158168
   0.91968646  0.37586118  0.92158168
   0.16968646  0.87586118  0.92158168
   0.41968646  0.87586118  0.92158168
   0.66968646  0.87586118  0.92158168
   0.91968646  0.87586118  0.92158168
   0.20531353  0.12586118  0.32841826
   0.45531353  0.12586118  0.32841826
   0.70531353  0.12586118  0.32841826
   0.95531353  0.12586118  0.32841826
   0.20531353  0.62586118  0.32841826
   0.45531353  0.62586118  0.32841826
   0.70531353  0.62586118  0.32841826
   0.95531353  0.62586118  0.32841826
   0.20531353  0.12586118  0.82841826
   0.45531353  0.12586118  0.82841826
   0.70531353  0.12586118  0.82841826
   0.95531353  0.12586118  0.82841826
   0.20531353  0.62586118  0.82841826
   0.45531353  0.62586118  0.82841826
   0.70531353  0.62586118  0.82841826
   0.95531353  0.62586118  0.82841826
   0.19181221  0.01194854  0.17003418
   0.44181221  0.01122259  0.17003418
   0.69181221  0.01122259  0.17003418
   0.94181221  0.01122259  0.17003418
   0.19181221  0.51122259  0.17003418
   0.44181221  0.51122259  0.17003418
   0.69181221  0.51122259  0.17003418
   0.94181221  0.51122259  0.17003418
   0.19181221  0.01122259  0.67003418
   0.44181221  0.01122259  0.67003418
   0.69181221  0.01122259  0.67003418
   0.94181221  0.01122259  0.67003418
   0.19181221  0.51122259  0.67003418
   0.44181221  0.51122259  0.67003418
   0.69181221  0.51122259  0.67003418
   0.94181221  0.51122259  0.67003418
   0.18318778  0.26122259  0.07996576
   0.43318778  0.26122259  0.07996576
   0.68318778  0.26122259  0.07996576
   0.93318778  0.26122259  0.07996576
   0.18318778  0.76122259  0.07996576
   0.43318778  0.76122259  0.07996576
   0.68318778  0.76122259  0.07996576
   0.93318778  0.76122259  0.07996576
   0.18318778  0.26122259  0.57996576
   0.43318778  0.26122259  0.57996576
   0.68318778  0.26122259  0.57996576
   0.93318778  0.26122259  0.57996576
   0.18318778  0.76122259  0.57996576
   0.43318778  0.76122259  0.57996576
   0.68318778  0.76122259  0.57996576
   0.93318778  0.76122259  0.57996576
   0.05818778  0.48877741  0.32996576
   0.30818778  0.48877741  0.32996576
   0.55818778  0.48877741  0.32996576
   0.80818778  0.48877741  0.32996576
   0.05818778  0.98877741  0.32996576
   0.30818778  0.98877741  0.32996576
   0.55818778  0.98877741  0.32996576
   0.80818778  0.98877741  0.32996576
   0.05818778  0.48877741  0.82996576
   0.30818778  0.48877741  0.82996576
   0.55818778  0.48877741  0.82996576
   0.80818778  0.48877741  0.82996576
   0.05818778  0.98877741  0.82996576
   0.30818778  0.98877741  0.82996576
   0.55818778  0.98877741  0.82996576
   0.80818778  0.98877741  0.82996576
   0.06681221  0.23877741  0.42003418
   0.31681221  0.23877741  0.42003418
   0.56681221  0.23877741  0.42003418
   0.81681221  0.23877741  0.42003418
   0.06681221  0.73877741  0.42003418
   0.31681221  0.73877741  0.42003418
   0.56681221  0.73877741  0.42003418
   0.81681221  0.73877741  0.42003418
   0.06681221  0.23877741  0.92003418
   0.31681221  0.23877741  0.92003418
   0.56681221  0.23877741  0.92003418
   0.81681221  0.23877741  0.92003418
   0.06681221  0.73877741  0.92003418
   0.31681221  0.73877741  0.92003418
   0.56681221  0.73877741  0.92003418
   0.81681221  0.73877741  0.92003418
   0.05608512  0.18037250  0.23351950
   0.30608512  0.18037250  0.23351950
   0.55608512  0.18037250  0.23351950
   0.80608512  0.18037250  0.23351950
   0.05608512  0.68037250  0.23351950
   0.30608512  0.68037250  0.23351950
   0.55608512  0.68037250  0.23351950
   0.80608512  0.68037250  0.23351950
   0.05608512  0.18037250  0.73351950
   0.30608512  0.18037250  0.73351950
   0.55608512  0.18037250  0.73351950
   0.80608512  0.18037250  0.73351950
   0.05608512  0.68037250  0.73351950
   0.30608512  0.68037250  0.73351950
   0.55608512  0.68037250  0.73351950
   0.80608512  0.68037250  0.73351950
   0.06891487  0.43037250  0.01648043
   0.31891487  0.43037250  0.01648043
   0.56891487  0.43037250  0.01648043
   0.81891487  0.43037250  0.01648043
   0.06891487  0.93037250  0.01648043
   0.31891487  0.93037250  0.01648043
   0.56891487  0.93037250  0.01648043
   0.81891487  0.93037250  0.01648043
   0.06891487  0.43037250  0.51648043
   0.31891487  0.43037250  0.51648043
   0.56891487  0.43037250  0.51648043
   0.81891487  0.43037250  0.51648043
   0.06891487  0.93037250  0.51648043
   0.31891487  0.93037250  0.51648043
   0.56891487  0.93037250  0.51648043
   0.81891487  0.93037250  0.51648043
   0.19391487  0.31962750  0.26648043
   0.44391487  0.31962750  0.26648043
   0.69391487  0.31962750  0.26648043
   0.94391487  0.31962750  0.26648043
   0.19391487  0.81962750  0.26648043
   0.44391487  0.81962750  0.26648043
   0.69391487  0.81962750  0.26648043
   0.94391487  0.81962750  0.26648043
   0.19391487  0.31962750  0.76648043
   0.44391487  0.31962750  0.76648043
   0.69391487  0.31962750  0.76648043
   0.94391487  0.31962750  0.76648043
   0.19391487  0.81962750  0.76648043
   0.44391487  0.81962750  0.76648043
   0.69391487  0.81962750  0.76648043
   0.94391487  0.81962750  0.76648043
   0.18108512  0.06962750  0.48351950
   0.43108512  0.06962750  0.48351950
   0.68108512  0.06962750  0.48351950
   0.93108512  0.06962750  0.48351950
   0.18108512  0.56962750  0.48351950
   0.43108512  0.56962750  0.48351950
   0.68108512  0.56962750  0.48351950
   0.93108512  0.56962750  0.48351950
   0.18108512  0.06962750  0.98351950
   0.43108512  0.06962750  0.98351950
   0.68108512  0.06962750  0.98351950
   0.93108512  0.06962750  0.98351950
   0.18108512  0.56962750  0.98351950
   0.43108512  0.56962750  0.98351950
   0.68108512  0.56962750  0.98351950
   0.93108512  0.56962750  0.98351950
 
 position of ions in cartesian coordinates  (Angst):
   1.08766656  1.71003237  1.19607260
   5.50625231  1.71003237  1.20254949
   9.92483806  1.71003237  1.20902638
  14.34342381  1.71003237  1.21550327
   1.08766656  8.59761342  1.19607260
   5.50625231  8.59761342  1.20254949
   9.92483806  8.59761342  1.20902638
  14.34342381  8.59761342  1.21550327
  -1.02805428  1.71003237  8.80904403
   3.39053147  1.71003237  8.81552092
   7.80911722  1.71003237  8.82199781
  12.22770297  1.71003237  8.82847470
  -1.02805428  8.59761342  8.80904403
   3.39053147  8.59761342  8.81552092
   7.80911722  8.59761342  8.82199781
  12.22770297  8.59761342  8.82847470
   0.06376593  5.15382289  2.61365065
   4.48235168  5.15382289  2.62012754
   8.90093743  5.15382289  2.62660443
  13.31952318  5.15382289  2.63308132
   0.06376593 12.04140394  2.61365065
   4.48235168 12.04140394  2.62012754
   8.90093743 12.04140394  2.62660443
  13.31952318 12.04140394  2.63308132
  -2.05195491  5.15382289 10.22662208
   2.36663084  5.15382289 10.23309897
   6.78521659  5.15382289 10.23957586
  11.20380234  5.15382289 10.24605275
  -2.05195491 12.04140394 10.22662208
   2.36663084 12.04140394 10.23309897
   6.78521659 12.04140394 10.23957586
  11.20380234 12.04140394 10.24605275
   1.21519838  5.17754868  6.42337481
   5.63378413  5.17754868  6.42985170
  10.05236988  5.17754868  6.43632859
  14.47095563  5.17754868  6.44280548
   1.21519838 12.06512973  6.42337481
   5.63378413 12.06512973  6.42985170
  10.05236988 12.06512973  6.43632859
  14.47095563 12.06512973  6.44280548
  -0.90052246  5.17754868 14.03634624
   3.51806329  5.17754868 14.04282313
   7.93664904  5.17754868 14.04930002
  12.35523479  5.17754868 14.05577691
  -0.90052246 12.06512973 14.03634624
   3.51806329 12.06512973 14.04282313
   7.93664904 12.06512973 14.04930002
  12.35523479 12.06512973 14.05577691
   2.23909901  1.73375816  5.00579676
   6.65768476  1.73375816  5.01227365
  11.07627051  1.73375816  5.01875054
  15.49485626  1.73375816  5.02522743
   2.23909901  8.62133921  5.00579676
   6.65768476  8.62133921  5.01227365
  11.07627051  8.62133921  5.01875054
  15.49485626  8.62133921  5.02522743
   0.12337817  1.73375816 12.61876819
   4.54196392  1.73375816 12.62524508
   8.96054967  1.73375816 12.63172197
  13.37913542  1.73375816 12.63819886
   0.12337817  8.62133921 12.61876819
   4.54196392  8.62133921 12.62524508
   8.96054967  8.62133921 12.63172197
  13.37913542  8.62133921 12.63819886
   2.67066503  0.16459307  2.59390010
   7.08925078  0.15459307  2.60037699
  11.50783653  0.15459307  2.60685388
  15.92642228  0.15459307  2.61333077
   2.67066503  7.04217412  2.59390010
   7.08925078  7.04217412  2.60037699
  11.50783653  7.04217412  2.60685388
  15.92642228  7.04217412  2.61333077
   0.55494419  0.15459307 10.20687153
   4.97352994  0.15459307 10.21334842
   9.39211569  0.15459307 10.21982531
  13.81070144  0.15459307 10.22630220
   0.55494419  7.04217412 10.20687153
   4.97352994  7.04217412 10.21334842
   9.39211569  7.04217412 10.21982531
  13.81070144  7.04217412 10.22630220
   2.89935325  3.59838359  1.22230004
   7.31793900  3.59838359  1.22877693
  11.73652475  3.59838359  1.23525382
  16.15511050  3.59838359  1.24173071
   2.89935325 10.48596464  1.22230004
   7.31793900 10.48596464  1.22877693
  11.73652475 10.48596464  1.23525382
  16.15511050 10.48596464  1.24173071
   0.78363241  3.59838359  8.83527147
   5.20221816  3.59838359  8.84174836
   9.62080391  3.59838359  8.84822525
  14.03938966  3.59838359  8.85470214
   0.78363241 10.48596464  8.83527147
   5.20221816 10.48596464  8.84174836
   9.62080391 10.48596464  8.84822525
  14.03938966 10.48596464  8.85470214
  -0.36780004  6.73298798  5.02554731
   4.05078571  6.73298798  5.03202420
   8.46937146  6.73298798  5.03850109
  12.88795721  6.73298798  5.04497798
  -0.36780004 13.62056903  5.02554731
   4.05078571 13.62056903  5.03202420
   8.46937146 13.62056903  5.03850109
  12.88795721 13.62056903  5.04497798
  -2.48352088  6.73298798 12.63851874
   1.93506487  6.73298798 12.64499563
   6.35365062  6.73298798 12.65147252
  10.77223637  6.73298798 12.65794941
  -2.48352088 13.62056903 12.63851874
   1.93506487 13.62056903 12.64499563
   6.35365062 13.62056903 12.65147252
  10.77223637 13.62056903 12.65794941
  -0.59648826  3.28919746  6.39714737
   3.82209749  3.28919746  6.40362426
   8.24068324  3.28919746  6.41010115
  12.65926899  3.28919746  6.41657804
  -0.59648826 10.17677851  6.39714737
   3.82209749 10.17677851  6.40362426
   8.24068324 10.17677851  6.41010115
  12.65926899 10.17677851  6.41657804
  -2.71220910  3.28919746 14.01011880
   1.70637665  3.28919746 14.01659569
   6.12496240  3.28919746 14.02307258
  10.54354815  3.28919746 14.02954947
  -2.71220910 10.17677851 14.01011880
   1.70637665 10.17677851 14.01659569
   6.12496240 10.17677851 14.02307258
  10.54354815 10.17677851 14.02954947
   0.00314344  2.48466036  3.55700767
   4.42172919  2.48466036  3.56348456
   8.84031494  2.48466036  3.56996145
  13.25890069  2.48466036  3.57643834
   0.00314344  9.37224141  3.55700767
   4.42172919  9.37224141  3.56348456
   8.84031494  9.37224141  3.56996145
  13.25890069  9.37224141  3.57643834
  -2.11257740  2.48466036 11.16997910
   2.30600835  2.48466036 11.17645599
   6.72459410  2.48466036 11.18293288
  11.14317985  2.48466036 11.18940977
  -2.11257740  9.37224141 11.16997910
   2.30600835  9.37224141 11.17645599
   6.72459410  9.37224141 11.18293288
  11.14317985  9.37224141 11.18940977
   1.14828905  5.92845088  0.25271558
   5.56687480  5.92845088  0.25919247
   9.98546055  5.92845088  0.26566936
  14.40404630  5.92845088  0.27214625
   1.14828905 12.81603193  0.25271558
   5.56687480 12.81603193  0.25919247
   9.98546055 12.81603193  0.26566936
  14.40404630 12.81603193  0.27214625
  -0.96743179  5.92845088  7.86568701
   3.45115396  5.92845088  7.87216390
   7.86973971  5.92845088  7.87864079
  12.28832546  5.92845088  7.88511768
  -0.96743179 12.81603193  7.86568701
   3.45115396 12.81603193  7.87216390
   7.86973971 12.81603193  7.87864079
  12.28832546 12.81603193  7.88511768
   2.29972151  4.40292069  4.06243974
   6.71830726  4.40292069  4.06891663
  11.13689301  4.40292069  4.07539352
  15.55547876  4.40292069  4.08187041
   2.29972151 11.29050174  4.06243974
   6.71830726 11.29050174  4.06891663
  11.13689301 11.29050174  4.07539352
  15.55547876 11.29050174  4.08187041
   0.18400067  4.40292069 11.67541117
   4.60258642  4.40292069 11.68188806
   9.02117217  4.40292069 11.68836495
  13.43975792  4.40292069 11.69484184
   0.18400067 11.29050174 11.67541117
   4.60258642 11.29050174 11.68188806
   9.02117217 11.29050174 11.68836495
  13.43975792 11.29050174 11.69484184
   1.15457589  0.95913017  7.36673183
   5.57316164  0.95913017  7.37320872
   9.99174739  0.95913017  7.37968561
  14.41033314  0.95913017  7.38616250
   1.15457589  7.84671122  7.36673183
   5.57316164  7.84671122  7.37320872
   9.99174739  7.84671122  7.37968561
  14.41033314  7.84671122  7.38616250
  -0.96114495  0.95913017 14.97970326
   3.45744080  0.95913017 14.98618015
   7.87602655  0.95913017 14.99265704
  12.29461230  0.95913017 14.99913393
  -0.96114495  7.84671122 14.97970326
   3.45744080  7.84671122 14.98618015
   7.87602655  7.84671122 14.99265704
  12.29461230  7.84671122 14.99913393
 


--------------------------------------------------------------------------------------------------------


 k-point  1 :   0.0000 0.0000 0.0000  plane waves:  139535
 k-point  2 :   0.5000 0.0000-0.0000  plane waves:  139562
 k-point  3 :   0.0000 0.5000 0.0000  plane waves:  139458
 k-point  4 :   0.5000 0.5000-0.0000  plane waves:  139424
 k-point  5 :  -0.0000 0.0000 0.5000  plane waves:  139574
 k-point  6 :   0.5000 0.0000 0.5000  plane waves:  139580
 k-point  7 :  -0.0000 0.5000 0.5000  plane waves:  139592
 k-point  8 :   0.5000 0.5000 0.5000  plane waves:  139628

 maximum and minimum number of plane-waves per node :     14024    13894

 maximum number of plane-waves:    139628
 maximum index in each direction: 
   IXMAX=   36   IYMAX=   28   IZMAX=   32
   IXMIN=  -37   IYMIN=  -29   IZMIN=  -33


 parallel 3D FFT for wavefunctions:
    minimum data exchange during FFTs selected (reduces bandwidth)
 parallel 3D FFT for charge:
    minimum data exchange during FFTs selected (reduces bandwidth)


 total amount of memory used by VASP MPI-rank0  2503081. kBytes
=======================================================================

   base      :      30000. kBytes
   nonl-proj :      75296. kBytes
   fftplans  :     301949. kBytes
   grid      :     123580. kBytes
   one-center:        311. kBytes
   wavefun   :    1971945. kBytes
 
     INWAV:  cpu time    0.0001: real time    0.0002
 Broyden mixing: mesh for mixing (old mesh)
   NGX = 73   NGY = 57   NGZ = 65
  (NGX  =300   NGY  =240   NGZ  =280)
  gives a total of 270465 points

 initial charge density was supplied:
 number of electron    1792.0000029 magnetization 
 keeping initial charge density in first step


--------------------------------------------------------------------------------------------------------


 Maximum index for augmentation-charges        26127 (set IRDMAX)


--------------------------------------------------------------------------------------------------------


 First call to EWALD:  gamma=   0.115
 Maximum number of real-space cells 3x 3x 3
 Maximum number of reciprocal cells 3x 2x 3

    FEWALD:  cpu time    0.0134: real time    0.0135


--------------------------------------- Iteration      1(   1)  ---------------------------------------


    POTLOK:  cpu time    1.4181: real time    1.4241
    SETDIJ:  cpu time    3.2370: real time    3.2451
     EDDAV:  cpu time 1876.8854: real time 1881.8037
       DOS:  cpu time    0.0095: real time    0.0096
    --------------------------------------------
      LOOP:  cpu time 1881.5501: real time 1886.4825

 eigenvalue-minimisations  : 17200
 total energy-change (2. order) : 0.1409601E+05  (-0.1002112E+06)
 number of electron    1792.0000029 magnetization 
 augmentation part     1792.0000029 magnetization 

 Free energy of the ion-electron system (eV)
  ---------------------------------------------------
  alpha Z        PSCENC =      6580.02941619
  Ewald energy   TEWEN  =   -132336.37011938
  -Hartree energ DENC   =    -32544.04815710
  -exchange      EXHF   =         0.00000000
  -V(xc)+E(xc)   XCENC  =     -1230.85645506
  PAW double counting   =    163058.89803092  -156650.78792849
  entropy T*S    EENTRO =        -0.05446220
  eigenvalues    EBANDS =     18043.22695637
  atomic energy  EATOM  =    149175.97080046
  Solvation  Ediel_sol  =         0.00000000
  ---------------------------------------------------
  free energy    TOTEN  =     14096.00808171 eV

  energy without entropy =    14096.06254391  energy(sigma->0) =    14096.03531281


--------------------------------------------------------------------------------------------------------




--------------------------------------- Iteration      1(   2)  ---------------------------------------


     EDDAV:  cpu time 2013.0747: real time 2018.4596
       DOS:  cpu time    0.0090: real time    0.0092
    --------------------------------------------
      LOOP:  cpu time 2013.0836: real time 2018.4688

 eigenvalue-minimisations  : 18136
 total energy-change (2. order) :-0.1389681E+05  (-0.1334511E+05)
 number of electron    1792.0000029 magnetization 
 augmentation part     1792.0000029 magnetization 

 Free energy of the ion-electron system (eV)
  ---------------------------------------------------
  alpha Z        PSCENC =      6580.02941619
  Ewald energy   TEWEN  =   -132336.37011938
  -Hartree energ DENC   =    -32544.04815710
  -exchange      EXHF   =         0.00000000
  -V(xc)+E(xc)   XCENC  =     -1230.85645506
  PAW double counting   =    163058.89803092  -156650.78792849
  entropy T*S    EENTRO =        -0.01153350
  eigenvalues    EBANDS =      4146.37457132
  atomic energy  EATOM  =    149175.97080046
  Solvation  Ediel_sol  =         0.00000000
  ---------------------------------------------------
  free energy    TOTEN  =       199.19862536 eV

  energy without entropy =      199.21015886  energy(sigma->0) =      199.20439211


--------------------------------------------------------------------------------------------------------




--------------------------------------- Iteration      1(   3)  ---------------------------------------


     EDDAV:  cpu time 2257.4751: real time 2263.2477
       DOS:  cpu time    0.0087: real time    0.0089
    --------------------------------------------
      LOOP:  cpu time 2257.4839: real time 2263.2566

 eigenvalue-minimisations  : 19104
 total energy-change (2. order) :-0.8542132E+03  (-0.8314839E+03)
 number of electron    1792.0000029 magnetization 
 augmentation part     1792.0000029 magnetization 

 Free energy of the ion-electron system (eV)
  ---------------------------------------------------
  alpha Z        PSCENC =      6580.02941619
  Ewald energy   TEWEN  =   -132336.37011938
  -Hartree energ DENC   =    -32544.04815710
  -exchange      EXHF   =         0.00000000
  -V(xc)+E(xc)   XCENC  =     -1230.85645506
  PAW double counting   =    163058.89803092  -156650.78792849
  entropy T*S    EENTRO =        -0.00685538
  eigenvalues    EBANDS =      3292.15669384
  atomic energy  EATOM  =    149175.97080046
  Solvation  Ediel_sol  =         0.00000000
  ---------------------------------------------------
  free energy    TOTEN  =      -655.01457400 eV

  energy without entropy =     -655.00771862  energy(sigma->0) =     -655.01114631


--------------------------------------------------------------------------------------------------------




--------------------------------------- Iteration      1(   4)  ---------------------------------------


     EDDAV:  cpu time 2206.1447: real time 2211.8417
       DOS:  cpu time    0.0096: real time    0.0098
    --------------------------------------------
      LOOP:  cpu time 2206.1543: real time 2211.8515

 eigenvalue-minimisations  : 18696
 total energy-change (2. order) :-0.2114088E+02  (-0.2088909E+02)
 number of electron    1792.0000029 magnetization 
 augmentation part     1792.0000029 magnetization 

 Free energy of the ion-electron system (eV)
  ---------------------------------------------------
  alpha Z        PSCENC =      6580.02941619
  Ewald energy   TEWEN  =   -132336.37011938
  -Hartree energ DENC   =    -32544.04815710
  -exchange      EXHF   =         0.00000000
  -V(xc)+E(xc)   XCENC  =     -1230.85645506
  PAW double counting   =    163058.89803092  -156650.78792849
  entropy T*S    EENTRO =        -0.00768306
  eigenvalues    EBANDS =      3271.01664033
  atomic energy  EATOM  =    149175.97080046
  Solvation  Ediel_sol  =         0.00000000
  ---------------------------------------------------
  free energy    TOTEN  =      -676.15545518 eV

  energy without entropy =     -676.14777213  energy(sigma->0) =     -676.15161366


--------------------------------------------------------------------------------------------------------




--------------------------------------- Iteration      1(   5)  ---------------------------------------


     EDDAV:  cpu time 2302.3188: real time 2308.3618
       DOS:  cpu time    0.0097: real time    0.0098
    CHARGE:  cpu time   29.6438: real time   29.7273
    MIXING:  cpu time    0.0442: real time    0.0443
    --------------------------------------------
      LOOP:  cpu time 2332.0165: real time 2338.1433

 eigenvalue-minimisations  : 19056
 total energy-change (2. order) :-0.2756744E+00  (-0.2747249E+00)
 number of electron    1792.0000029 magnetization 
 augmentation part      604.9768909 magnetization 

 Broyden mixing:
  rms(total) = 0.13841E-01    rms(broyden)= 0.13841E-01
  rms(prec ) = 0.14046E-01
  weight for this iteration     100.00

 Free energy of the ion-electron system (eV)
  ---------------------------------------------------
  alpha Z        PSCENC =      6580.02941619
  Ewald energy   TEWEN  =   -132336.37011938
  -Hartree energ DENC   =    -32544.04815710
  -exchange      EXHF   =         0.00000000
  -V(xc)+E(xc)   XCENC  =     -1230.85645506
  PAW double counting   =    163058.89803092  -156650.78792849
  entropy T*S    EENTRO =        -0.00768478
  eigenvalues    EBANDS =      3270.74096768
  atomic energy  EATOM  =    149175.97080046
  Solvation  Ediel_sol  =         0.00000000
  ---------------------------------------------------
  free energy    TOTEN  =      -676.43112956 eV

  energy without entropy =     -676.42344478  energy(sigma->0) =     -676.42728717


--------------------------------------------------------------------------------------------------------




--------------------------------------- Iteration      1(   6)  ---------------------------------------


    POTLOK:  cpu time    1.5497: real time    1.5545
    SETDIJ:  cpu time    3.5419: real time    3.5511
     EDDAV:  cpu time 2377.3463: real time 2383.4801
       DOS:  cpu time    0.0099: real time    0.0102
    CHARGE:  cpu time   31.9496: real time   32.0304
    MIXING:  cpu time    0.0480: real time    0.0481
    --------------------------------------------
      LOOP:  cpu time 2414.4454: real time 2420.6743

 eigenvalue-minimisations  : 18664
 total energy-change (2. order) : 0.1151422E-01  (-0.9397202E-02)
 number of electron    1792.0000029 magnetization 
 augmentation part      604.9594767 magnetization 

 Broyden mixing:
  rms(total) = 0.50493E-02    rms(broyden)= 0.50491E-02
  rms(prec ) = 0.51980E-02
  weight for this iteration     100.00

 eigenvalues of (default mixing * dielectric matrix)
  average eigenvalue GAMMA=   0.7688
  0.7688

 Free energy of the ion-electron system (eV)
  ---------------------------------------------------
  alpha Z        PSCENC =      6580.02941619
  Ewald energy   TEWEN  =   -132336.37011938
  -Hartree energ DENC   =    -32543.93323220
  -exchange      EXHF   =         0.00000000
  -V(xc)+E(xc)   XCENC  =     -1230.86644991
  PAW double counting   =    163116.56571652  -156708.51932293
  entropy T*S    EENTRO =        -0.00766685
  eigenvalues    EBANDS =      3270.71124277
  atomic energy  EATOM  =    149175.97080046
  Solvation  Ediel_sol  =         0.00000000
  ---------------------------------------------------
  free energy    TOTEN  =      -676.41961534 eV

  energy without entropy =     -676.41194849  energy(sigma->0) =     -676.41578191


--------------------------------------------------------------------------------------------------------




--------------------------------------- Iteration      1(   7)  ---------------------------------------


    POTLOK:  cpu time    1.5066: real time    1.5115
    SETDIJ:  cpu time    3.7028: real time    3.7122
     EDDAV:  cpu time 2471.5217: real time 2477.8250
       DOS:  cpu time    0.0103: real time    0.0565
    CHARGE:  cpu time   30.7000: real time   30.7861
    MIXING:  cpu time    0.0465: real time    0.0466
    --------------------------------------------
      LOOP:  cpu time 2507.4879: real time 2513.9380

 eigenvalue-minimisations  : 19080
 total energy-change (2. order) :-0.3751797E-03  (-0.3966258E-03)
 number of electron    1792.0000029 magnetization 
 augmentation part      604.9616612 magnetization 

 Broyden mixing:
  rms(total) = 0.40438E-02    rms(broyden)= 0.40435E-02
  rms(prec ) = 0.41105E-02
  weight for this iteration     100.00

 eigenvalues of (default mixing * dielectric matrix)
  average eigenvalue GAMMA=   0.9342
  0.9342  0.9342

 Free energy of the ion-electron system (eV)
  ---------------------------------------------------
  alpha Z        PSCENC =      6580.02941619
  Ewald energy   TEWEN  =   -132336.37011938
  -Hartree energ DENC   =    -32543.94512807
  -exchange      EXHF   =         0.00000000
  -V(xc)+E(xc)   XCENC  =     -1230.86349549
  PAW double counting   =    163105.25215037  -156697.19150395
  entropy T*S    EENTRO =        -0.00766506
  eigenvalues    EBANDS =      3270.70555442
  atomic energy  EATOM  =    149175.97080046
  Solvation  Ediel_sol  =         0.00000000
  ---------------------------------------------------
  free energy    TOTEN  =      -676.41999052 eV

  energy without entropy =     -676.41232546  energy(sigma->0) =     -676.41615799


--------------------------------------------------------------------------------------------------------




--------------------------------------- Iteration      1(   8)  ---------------------------------------


    POTLOK:  cpu time    1.5442: real time    1.5493
    SETDIJ:  cpu time    3.5436: real time    3.5532
     EDDAV:  cpu time 2423.3189: real time 2429.8723
       DOS:  cpu time    0.0097: real time    0.0098
    CHARGE:  cpu time   32.5920: real time   32.6806
    MIXING:  cpu time    0.0465: real time    0.0466
    --------------------------------------------
      LOOP:  cpu time 2461.0549: real time 2467.7118

 eigenvalue-minimisations  : 18656
 total energy-change (2. order) :-0.1066551E-04  (-0.1686405E-04)
 number of electron    1792.0000029 magnetization 
 augmentation part      604.9614098 magnetization 

 Broyden mixing:
  rms(total) = 0.28534E-02    rms(broyden)= 0.28530E-02
  rms(prec ) = 0.28832E-02
  weight for this iteration     100.00

 eigenvalues of (default mixing * dielectric matrix)
  average eigenvalue GAMMA=   1.2322
  1.4660  1.4660  0.7647

 Free energy of the ion-electron system (eV)
  ---------------------------------------------------
  alpha Z        PSCENC =      6580.02941619
  Ewald energy   TEWEN  =   -132336.37011938
  -Hartree energ DENC   =    -32544.02694300
  -exchange      EXHF   =         0.00000000
  -V(xc)+E(xc)   XCENC  =     -1230.85878923
  PAW double counting   =    163088.97365301  -156680.90778624
  entropy T*S    EENTRO =        -0.00766464
  eigenvalues    EBANDS =      3270.77743166
  atomic energy  EATOM  =    149175.97080046
  Solvation  Ediel_sol  =         0.00000000
  ---------------------------------------------------
  free energy    TOTEN  =      -676.42000118 eV

  energy without entropy =     -676.41233654  energy(sigma->0) =     -676.41616886


--------------------------------------------------------------------------------------------------------




--------------------------------------- Iteration      1(   9)  ---------------------------------------


    POTLOK:  cpu time    1.5408: real time    1.5467
    SETDIJ:  cpu time    3.6366: real time    3.6465
     EDDAV:  cpu time 2455.2012: real time 2461.7977
       DOS:  cpu time    0.0097: real time    0.0114
    CHARGE:  cpu time   32.1649: real time   32.2461
    MIXING:  cpu time    0.0539: real time    0.0540
    --------------------------------------------
      LOOP:  cpu time 2492.6071: real time 2499.3025

 eigenvalue-minimisations  : 18864
 total energy-change (2. order) : 0.2693094E-05  (-0.1264488E-05)
 number of electron    1792.0000029 magnetization 
 augmentation part      604.9616512 magnetization 

 Broyden mixing:
  rms(total) = 0.97775E-03    rms(broyden)= 0.97659E-03
  rms(prec ) = 0.98426E-03
  weight for this iteration     100.00

 eigenvalues of (default mixing * dielectric matrix)
  average eigenvalue GAMMA=   1.2738
  2.1406  1.2507  0.8519  0.8519

 Free energy of the ion-electron system (eV)
  ---------------------------------------------------
  alpha Z        PSCENC =      6580.02941619
  Ewald energy   TEWEN  =   -132336.37011938
  -Hartree energ DENC   =    -32544.09747099
  -exchange      EXHF   =         0.00000000
  -V(xc)+E(xc)   XCENC  =     -1230.85524791
  PAW double counting   =    163067.25141081  -156659.18292244
  entropy T*S    EENTRO =        -0.00766428
  eigenvalues    EBANDS =      3270.84179905
  atomic energy  EATOM  =    149175.97080046
  Solvation  Ediel_sol  =         0.00000000
  ---------------------------------------------------
  free energy    TOTEN  =      -676.41999849 eV

  energy without entropy =     -676.41233421  energy(sigma->0) =     -676.41616635


--------------------------------------------------------------------------------------------------------




[...]
   -.615E+02 -.303E+02 0.289E+02   0.613E+02 0.304E+02 -.290E+02   0.169E+00 -.644E-01 0.107E+00   0.432E-05 0.513E-05 0.127E-05
   -.615E+02 -.303E+02 0.289E+02   0.613E+02 0.304E+02 -.290E+02   0.169E+00 -.645E-01 0.108E+00   0.358E-05 0.369E-05 0.149E-05
   -.616E+02 -.298E+02 0.293E+02   0.614E+02 0.299E+02 -.295E+02   0.168E+00 -.624E-01 0.105E+00   -.749E-06 -.115E-05 0.737E-05
   -.615E+02 -.303E+02 0.289E+02   0.613E+02 0.303E+02 -.290E+02   0.169E+00 -.643E-01 0.107E+00   0.726E-06 -.926E-06 0.247E-05
   -.615E+02 -.303E+02 0.289E+02   0.613E+02 0.304E+02 -.290E+02   0.169E+00 -.643E-01 0.108E+00   0.453E-05 -.717E-06 0.230E-05
   -.614E+02 -.302E+02 0.289E+02   0.612E+02 0.303E+02 -.290E+02   0.171E+00 -.638E-01 0.109E+00   0.600E-05 0.104E-05 0.224E-05
   -.615E+02 -.305E+02 0.288E+02   0.613E+02 0.305E+02 -.289E+02   0.169E+00 -.648E-01 0.107E+00   0.188E-05 0.351E-05 0.106E-05
   -.615E+02 -.304E+02 0.289E+02   0.613E+02 0.304E+02 -.290E+02   0.169E+00 -.645E-01 0.107E+00   0.206E-05 0.462E-05 0.288E-05
   -.615E+02 -.303E+02 0.289E+02   0.613E+02 0.304E+02 -.290E+02   0.169E+00 -.644E-01 0.107E+00   0.478E-05 0.442E-05 0.187E-05
   -.615E+02 -.304E+02 0.289E+02   0.613E+02 0.305E+02 -.290E+02   0.169E+00 -.646E-01 0.107E+00   0.309E-05 0.386E-05 0.115E-05
 -----------------------------------------------------------------------------------------------
   -.560E-01 0.662E-01 -.250E-01   0.412E-12 0.909E-12 0.176E-11   0.560E-01 -.662E-01 0.250E-01   -.366E-04 -.481E-04 0.225E-04
 
 
 POSITION                                       TOTAL-FORCE (eV/Angst)
 -----------------------------------------------------------------------------------
      1.08767      1.71003      1.19607        -0.015670      0.012078     -0.013184
      5.50625      1.71003      1.20255        -0.002889      0.000264     -0.002731
      9.92484      1.71003      1.20903        -0.003561      0.000432     -0.002489
     14.34342      1.71003      1.21550        -0.003099      0.000393     -0.002427
      1.08767      8.59761      1.19607        -0.003557      0.000161     -0.002575
      5.50625      8.59761      1.20255        -0.003665     -0.000023     -0.002607
      9.92484      8.59761      1.20903        -0.003558      0.000325     -0.002452
     14.34342      8.59761      1.21550        -0.003577      0.000346     -0.002457
     -1.02805      1.71003      8.80904        -0.003623      0.000395     -0.002429
      3.39053      1.71003      8.81552        -0.003839      0.000510     -0.002658
      7.80912      1.71003      8.82200        -0.003600      0.000388     -0.002424
     12.22770      1.71003      8.82847        -0.003566      0.000366     -0.002316
     -1.02805      8.59761      8.80904        -0.003551      0.000330     -0.002481
      3.39053      8.59761      8.81552        -0.003601      0.000349     -0.002388
      7.80912      8.59761      8.82200        -0.003595      0.000364     -0.002406
     12.22770      8.59761      8.82847        -0.003588      0.000367     -0.002440
      0.06377      5.15382      2.61365         0.003766      0.000091      0.002464
      4.48235      5.15382      2.62013         0.003561      0.000342      0.002577
      8.90094      5.15382      2.62660         0.003629      0.000360      0.002452
     13.31952      5.15382      2.63308         0.003641      0.000319      0.002389
      0.06377     12.04140      2.61365         0.005410      0.000342      0.002094
      4.48235     12.04140      2.62013        -0.012460      0.015432      0.004714
      8.90094     12.04140      2.62660         0.004107      0.000432      0.002481
     13.31952     12.04140      2.63308         0.003581      0.000427      0.002439
     -2.05195      5.15382     10.22662         0.003603      0.000344      0.002428
      2.36663      5.15382     10.23310         0.003589      0.000342      0.002451
      6.78522      5.15382     10.23958         0.003590      0.000363      0.002418
     11.20380      5.15382     10.24605         0.003610      0.000354      0.002439
     -2.05195     12.04140     10.22662         0.003663      0.000370      0.002421
      2.36663     12.04140     10.23310         0.003574      0.000422      0.002446
      6.78522     12.04140     10.23958         0.003615      0.000383      0.002505
     11.20380     12.04140     10.24605         0.003614      0.000380      0.002394
      1.21520      5.17755      6.42337         0.003618     -0.000709      0.002443
      5.63378      5.17755      6.42985         0.003588     -0.000386      0.002415
     10.05237      5.17755      6.43633         0.003604     -0.000399      0.002420
     14.47096      5.17755      6.44281         0.003591     -0.000437      0.002447
      1.21520     12.06513      6.42337         0.003844     -0.000187      0.002036
      5.63378     12.06513      6.42985         0.003593     -0.000309      0.002746
     10.05237     12.06513      6.43633         0.003589     -0.000352      0.002478
     14.47096     12.06513      6.44281         0.003627     -0.000371      0.002416
     -0.90052      5.17755     14.03635         0.003568     -0.000499      0.002464
      3.51806      5.17755     14.04282         0.003558     -0.000486      0.002444
      7.93665      5.17755     14.04930         0.003607     -0.000387      0.002411
     12.35523      5.17755     14.05578         0.003643     -0.000430      0.002463
     -0.90052     12.06513     14.03635         0.003137     -0.000071      0.003002
      3.51806     12.06513     14.04282         0.003573     -0.000357      0.002446
      7.93665     12.06513     14.04930         0.003581     -0.000364      0.002435
     12.35523     12.06513     14.05578         0.003359     -0.000361      0.002309
      2.23910      1.73376      5.00580        -0.004534      0.001889      0.001871
      6.65768      1.73376      5.01227        -0.003589     -0.000295     -0.002335
     11.07627      1.73376      5.01875        -0.003591     -0.000362     -0.002406
     15.49486      1.73376      5.02523        -0.003511     -0.000353     -0.002399
      2.23910      8.62134      5.00580        -0.003769     -0.000828     -0.002220
      6.65768      8.62134      5.01227        -0.003419     -0.000624     -0.002309
     11.07627      8.62134      5.01875        -0.003595     -0.000375     -0.002430
     15.49486      8.62134      5.02523        -0.003720     -0.000526     -0.002313
      0.12338      1.73376     12.61877        -0.003677     -0.000412     -0.002399
      4.54196      1.73376     12.62525        -0.003614     -0.000384     -0.002512
      8.96055      1.73376     12.63172        -0.003595     -0.000374     -0.002413
     13.37914      1.73376     12.63820        -0.003559     -0.000369     -0.001909
      0.12338      8.62134     12.61877        -0.003643     -0.000376     -0.002435
      4.54196      8.62134     12.62525        -0.003619     -0.000400     -0.002415
      8.96055      8.62134     12.63172        -0.003602     -0.000384     -0.002435
     13.37914      8.62134     12.63820        -0.003600     -0.000396     -0.002461
      2.67067      0.16459      2.59390         0.024021     -0.035246      0.008937
      7.08925      0.15459      2.60038         0.000301      0.000250     -0.000693
     11.50784      0.15459      2.60685         0.000313      0.000362     -0.000743
     15.92642      0.15459      2.61333         0.000419      0.000251     -0.000761
      2.67067      7.04217      2.59390         0.000333      0.000621     -0.000744
      7.08925      7.04217      2.60038         0.000359      0.000561     -0.000772
     11.50784      7.04217      2.60685         0.000360      0.000482     -0.000758
     15.92642      7.04217      2.61333         0.000332      0.000561     -0.000700
      0.55494      0.15459     10.20687         0.000356      0.000448     -0.000683
      4.97353      0.15459     10.21335         0.000402      0.000430     -0.000697
      9.39212      0.15459     10.21983         0.000369      0.000435     -0.000754
     13.81070      0.15459     10.22630         0.000358      0.000430     -0.000779
      0.55494      7.04217     10.20687         0.000380      0.000465     -0.000758
      4.97353      7.04217     10.21335         0.000372      0.000467     -0.000764
      9.39212      7.04217     10.21983         0.000361      0.000464     -0.000757
     13.81070      7.04217     10.22630         0.000366      0.000467     -0.000756
      2.89935      3.59838      1.22230        -0.000054      0.001147      0.000588
      7.31794      3.59838      1.22878        -0.000203      0.000576      0.000765
     11.73652      3.59838      1.23525        -0.000416      0.000464      0.000747
     16.15511      3.59838      1.24173        -0.000860      0.000690      0.000804
      2.89935     10.48596      1.22230        -0.000080      0.001140      0.001469
      7.31794     10.48596      1.22878        -0.000551      0.000576      0.000802
     11.73652     10.48596      1.23525        -0.000406      0.000464      0.000766
     16.15511     10.48596      1.24173        -0.000146      0.000691      0.001143
      0.78363      3.59838      8.83527        -0.000364      0.000433      0.000716
      5.20222      3.59838      8.84175        -0.000332      0.000478      0.000761
      9.62080      3.59838      8.84823        -0.000383      0.000458      0.000745
     14.03939      3.59838      8.85470        -0.000378      0.000449      0.000745
      0.78363     10.48596      8.83527        -0.000366      0.000433      0.000771
      5.20222     10.48596      8.84175        -0.000357      0.000478      0.000673
      9.62080     10.48596      8.84823        -0.000369      0.000458      0.000742
     14.03939     10.48596      8.85470        -0.000375      0.000449      0.000744
     -0.36780      6.73299      5.02555        -0.000386     -0.000304      0.000713
      4.05079      6.73299      5.03202        -0.000445     -0.000290      0.000799
      8.46937      6.73299      5.03850        -0.000435     -0.000368      0.000806
     12.88796      6.73299      5.04498        -0.000385     -0.000413      0.000748
     -0.36780     13.62057      5.02555        -0.000451     -0.000644      0.000634
      4.05079     13.62057      5.03202        -0.000796     -0.002399     -0.002210
      8.46937     13.62057      5.03850        -0.000341     -0.000556      0.000688
     12.88796     13.62057      5.04498        -0.000371     -0.000481      0.000735
     -2.48352      6.73299     12.63852        -0.000396     -0.000402      0.000745
      1.93506      6.73299     12.64500        -0.000368     -0.000398      0.000747
      6.35365      6.73299     12.65147        -0.000369     -0.000438      0.000748
     10.77224      6.73299     12.65795        -0.000382     -0.000422      0.000734
     -2.48352     13.62057     12.63852        -0.000374     -0.000479      0.000871
      1.93506     13.62057     12.64500        -0.000366     -0.000483      0.000804
      6.35365     13.62057     12.65147        -0.000369     -0.000481      0.000751
     10.77224     13.62057     12.65795        -0.000388     -0.000552      0.000734
     -0.59649      3.28920      6.39715         0.000289     -0.000344     -0.000658
      3.82210      3.28920      6.40362         0.000768     -0.000151     -0.000415
      8.24068      3.28920      6.41010         0.000362     -0.000433     -0.000747
     12.65927      3.28920      6.41658         0.000364     -0.000435     -0.000766
     -0.59649     10.17678      6.39715         0.000373     -0.000489     -0.000796
      3.82210     10.17678      6.40362         0.000325     -0.000449     -0.000845
      8.24068     10.17678      6.41010         0.000333     -0.000412     -0.000861
     12.65927     10.17678      6.41658         0.000355     -0.000456     -0.000762
     -2.71221      3.28920     14.01012         0.000456     -0.000151     -0.001136
      1.70638      3.28920     14.01660         0.000451     -0.000343     -0.000819
      6.12496      3.28920     14.02307         0.000391     -0.000435     -0.000749
     10.54355      3.28920     14.02955         0.000372     -0.000433     -0.000774
     -2.71221     10.17678     14.01012         0.000361     -0.000449     -0.000629
      1.70638     10.17678     14.01660         0.000392     -0.000490     -0.000722
      6.12496     10.17678     14.02307         0.000367     -0.000456     -0.000728
     10.54355     10.17678     14.02955         0.000408     -0.000412     -0.000728
      0.00314      2.48466      3.55701        -0.000046     -0.001771     -0.000146
      4.42173      2.48466      3.56348         0.003586      0.000063     -0.000198
      8.84031      2.48466      3.56996         0.001287     -0.002274     -0.000480
     13.25890      2.48466      3.57644         0.001257     -0.002271     -0.000444
      0.00314      9.37224      3.55701         0.001241     -0.002152     -0.000538
      4.42173      9.37224      3.56348         0.001322     -0.001595     -0.000699
      8.84031      9.37224      3.56996         0.001214     -0.002232     -0.000470
     13.25890      9.37224      3.57644         0.001314     -0.002278     -0.000472
     -2.11258      2.48466     11.16998         0.001329     -0.002276     -0.000467
      2.30601      2.48466     11.17646         0.001313     -0.002270     -0.000470
      6.72459      2.48466     11.18293         0.001277     -0.002283     -0.000465
     11.14318      2.48466     11.18941         0.001246     -0.002282     -0.000487
     -2.11258      9.37224     11.16998         0.001272     -0.002298     -0.000459
      2.30601      9.37224     11.17646         0.001299     -0.002311     -0.000473
      6.72459      9.37224     11.18293         0.001291     -0.002290     -0.000475
     11.14318      9.37224     11.18941         0.001283     -0.002288     -0.000463
      1.14829      5.92845      0.25272        -0.001266     -0.002192      0.000480
      5.56687      5.92845      0.25919        -0.001227     -0.002160      0.000474
      9.98546      5.92845      0.26567        -0.001278     -0.002264      0.000476
     14.40405      5.92845      0.27215        -0.001318     -0.002230      0.000467
      1.14829     12.81603      0.25272        -0.000178     -0.002389      0.002277
      5.56687     12.81603      0.25919        -0.001595     -0.002625      0.001020
      9.98546     12.81603      0.26567        -0.001295     -0.002336      0.000505
     14.40405     12.81603      0.27215        -0.001341     -0.002360      0.000440
     -0.96743      5.92845      7.86569        -0.001309     -0.002254      0.000488
      3.45115      5.92845      7.87216        -0.001275     -0.002250      0.000475
      7.86974      5.92845      7.87864        -0.001271     -0.002270      0.000471
     12.28833      5.92845      7.88512        -0.001285     -0.002273      0.000465
     -0.96743     12.81603      7.86569        -0.001322     -0.002333      0.000450
      3.45115     12.81603      7.87216        -0.001223     -0.002352      0.000389
      7.86974     12.81603      7.87864        -0.001339     -0.002314      0.000441
     12.28833     12.81603      7.88512        -0.001304     -0.002315      0.000456
      2.29972      4.40292      4.06244        -0.001417      0.002994      0.000531
      6.71831      4.40292      4.06892        -0.001248      0.002296      0.000496
     11.13689      4.40292      4.07539        -0.001295      0.002292      0.000474
     15.55548      4.40292      4.08187        -0.001361      0.002344      0.000505
      2.29972     11.29050      4.06244         0.000402      0.006534     -0.002778
      6.71831     11.29050      4.06892        -0.002406      0.002388     -0.000496
     11.13689     11.29050      4.07539        -0.001332      0.002331      0.000411
     15.55548     11.29050      4.08187        -0.000966      0.002330      0.000195
      0.18400      4.40292     11.67541        -0.001273      0.002271      0.000445
      4.60259      4.40292     11.68189        -0.001277      0.002277      0.000476
      9.02117      4.40292     11.68836        -0.001287      0.002296      0.000466
     13.43976      4.40292     11.69484        -0.001304      0.002334      0.000437
      0.18400     11.29050     11.67541        -0.001281      0.002260      0.000383
      4.60259     11.29050     11.68189        -0.001280      0.002300      0.000476
      9.02117     11.29050     11.68836        -0.001305      0.002284      0.000463
     13.43976     11.29050     11.69484        -0.001330      0.002285      0.000490
      1.15458      0.95913      7.36673         0.001065      0.001814      0.000089
      5.57316      0.95913      7.37321         0.001312      0.002245     -0.000527
      9.99175      0.95913      7.37969         0.001270      0.002268     -0.000484
     14.41033      0.95913      7.38616         0.001276      0.002260     -0.000454
      1.15458      7.84671      7.36673         0.001339      0.002419     -0.000534
      5.57316      7.84671      7.37321         0.001304      0.002334     -0.000487
      9.99175      7.84671      7.37969         0.001286      0.002298     -0.000470
     14.41033      7.84671      7.38616         0.001292      0.002308     -0.000491
     -0.96114      0.95913     14.97970         0.002361      0.001926     -0.002730
      3.45744      0.95913     14.98618         0.001395      0.002153     -0.000517
      7.87603      0.95913     14.99266         0.001232      0.002254     -0.000503
     12.29461      0.95913     14.99913         0.000535      0.001842     -0.000966
     -0.96114      7.84671     14.97970         0.001277      0.002350     -0.000381
      3.45744      7.84671     14.98618         0.001241      0.002342     -0.000428
      7.87603      7.84671     14.99266         0.001282      0.002307     -0.000453
     12.29461      7.84671     14.99913         0.001329      0.002330     -0.000415
 -----------------------------------------------------------------------------------
    total drift:                                0.000000      0.000004     -0.000003


--------------------------------------------------------------------------------------------------------



  FREE ENERGIE OF THE ION-ELECTRON SYSTEM (eV)
  ---------------------------------------------------
  free  energy   TOTEN  =      -676.41999728 eV

  energy  without entropy=     -676.41233290  energy(sigma->0) =     -676.41616509
 


--------------------------------------------------------------------------------------------------------


    POTLOK:  cpu time    5.1571: real time    5.2010


--------------------------------------------------------------------------------------------------------


     LOOP+:  cpu time35121.4516: real time35214.9242
    4ORBIT:  cpu time    0.0000: real time    0.0000

 total amount of memory used by VASP MPI-rank0  2503081. kBytes
=======================================================================

   base      :      30000. kBytes
   nonl-proj :      75296. kBytes
   fftplans  :     301949. kBytes
   grid      :     123580. kBytes
   one-center:        311. kBytes
   wavefun   :    1971945. kBytes
 
  
  
 General timing and accounting informations for this job:
 ========================================================
  
                  Total CPU time used (sec):    35521.531
                            User time (sec):    35352.317
                          System time (sec):      169.215
                         Elapsed time (sec):    35616.751
  
                   Maximum memory used (kb):     2898628.
                   Average memory used (kb):           0.
  
                          Minor page faults:      1948633
                          Major page faults:           42
                 Voluntary context switches:         3020
