<?xml version="1.0" encoding="ISO-8859-1"?>
<modeling>
 <generator>
  <i name="program" type="string">vasp </i>
  <i name="version" type="string">5.4.4.18Apr17-6-g9f103f2a35  </i>
  <i name="subversion" type="string">(build Jul 30 2020 14:31:59) complex            parallel </i>
  <i name="platform" type="string">LinuxIFC </i>
  <i name="date" type="string">2020 11 04 </i>
  <i name="time" type="string">05:21:56 </i>
 </generator>
 <incar>
  <i type="string" name="PREC">accurate</i>
  <i type="string" name="ALGO"> normal</i>
  <i type="logical" name="ADDGRID"> T  </i>
  <i type="int" name="ISPIN">     1</i>
  <i type="int" name="ICHARG">     1</i>
  <i type="int" name="NELM">   200</i>
  <i type="int" name="NELMIN">     8</i>
  <i name="EDIFF">      0.00000001</i>
  <i type="int" name="ISIF">     3</i>
  <i name="ENCUT">    650.00000000</i>
  <i type="logical" name="LREAL"> F  </i>
  <i type="int" name="ISMEAR">     0</i>
  <i name="SIGMA">      0.05000000</i>
  <i type="logical" name="LWAVE"> F  </i>
  <i type="logical" name="LASPH"> T  </i>
  <v type="int" name="KPOINT_BSE">    -1     0     0     0</v>
  <i type="int" name="NELM">   200</i>
  <i type="string" name="GGA"> ps</i>
  <i type="logical" name="LASPH"> T  </i>
 </incar>
 <structure name="primitive_cell" >
  <crystal>
   <varray name="basis" >
    <v>      17.67434300       0.00000000       0.02590756 </v>
    <v>       0.00000000      13.77516210       0.00000000 </v>
    <v>      -4.23144168       0.00000000      15.22594286 </v>
   </varray>
   <i name="volume">   3708.52383470 </i>
   <varray name="rec_basis" >
    <v>       0.05655615       0.00000000       0.01571752 </v>
    <v>       0.00000000       0.07259443       0.00000000 </v>
    <v>      -0.00009623       0.00000000       0.06565063 </v>
   </varray>
  </crystal>
  <varray name="positions" >
   <v>       0.08031353       0.12413882       0.07841825 </v>
   <v>       0.19181221       0.01194854       0.17003418 </v>
   <v>       0.18318778       0.26122260       0.07996576 </v>
   <v>       0.05608512       0.18037250       0.23351951 </v>
   <v>       0.18108512       0.06962750      -0.01648049 </v>
   <v>      -0.06891488       0.06962750      -0.01648049 </v>
   <v>       0.06891487      -0.06962750       0.01648043 </v>
   <v>       0.06681221       0.23877740      -0.07996582 </v>
   <v>      -0.06681222       0.26122260       0.07996576 </v>
   <v>      -0.05818779       0.01122260       0.17003418 </v>
   <v>       0.04468646       0.37413882       0.17158168 </v>
   <v>       0.04468646      -0.12586118       0.17158168 </v>
   <v>       0.20531353       0.12586118       0.32841825 </v>
   <v>      -0.04468647       0.12586118      -0.17158175 </v>
   <v>       0.19391487       0.31962750       0.26648043 </v>
   <v>       0.30608512       0.18037250       0.23351951 </v>
   <v>       0.05818778      -0.01122260      -0.17003424 </v>
   <v>       0.06891487       0.43037250       0.01648043 </v>
   <v>       0.33031353       0.12413882       0.07841825 </v>
   <v>      -0.16968647       0.12413882       0.07841825 </v>
   <v>       0.05818778      -0.01122260       0.32996576 </v>
   <v>      -0.08031354      -0.12413882      -0.07841832 </v>
   <v>       0.16968646      -0.12413882      -0.07841832 </v>
   <v>      -0.08031354       0.37586118      -0.07841832 </v>
   <v>       0.16968646       0.37586118      -0.07841832 </v>
   <v>      -0.18318779       0.23877740      -0.07996582 </v>
   <v>      -0.04468647       0.12586118       0.32841825 </v>
   <v>       0.20531353       0.12586118      -0.17158175 </v>
   <v>       0.29468646       0.37413882       0.17158168 </v>
   <v>       0.29468646      -0.12586118       0.17158168 </v>
   <v>      -0.05608513       0.31962750       0.26648043 </v>
   <v>       0.30818778      -0.01122260       0.32996576 </v>
   <v>      -0.18108513      -0.06962750       0.01648043 </v>
   <v>       0.19391487      -0.18037250       0.26648043 </v>
   <v>       0.31891487      -0.06962750       0.01648043 </v>
   <v>       0.18318778      -0.23877740       0.07996576 </v>
   <v>       0.05608512       0.18037250      -0.26648049 </v>
   <v>      -0.05608513       0.31962750      -0.23351957 </v>
   <v>      -0.06681222      -0.23877740       0.07996576 </v>
   <v>       0.31681221       0.23877740      -0.07996582 </v>
   <v>      -0.19181222      -0.01122260      -0.17003424 </v>
   <v>       0.06681221       0.23877740       0.42003418 </v>
   <v>       0.19181221      -0.48877740       0.17003418 </v>
   <v>       0.06681221      -0.26122260      -0.07996582 </v>
   <v>      -0.05608513      -0.18037250       0.26648043 </v>
   <v>      -0.19391488       0.18037250       0.23351951 </v>
   <v>       0.31681221       0.23877740       0.42003418 </v>
   <v>      -0.18108513       0.43037250       0.01648043 </v>
   <v>      -0.05818779      -0.48877740       0.17003418 </v>
   <v>       0.18108512       0.06962750       0.48351951 </v>
   <v>       0.31891487       0.43037250       0.01648043 </v>
   <v>       0.16968646      -0.12413882       0.42158168 </v>
   <v>       0.16968646       0.37586118       0.42158168 </v>
   <v>      -0.19391488       0.18037250      -0.26648049 </v>
   <v>       0.05818778       0.48877740      -0.17003424 </v>
   <v>       0.44181221       0.01122260       0.17003418 </v>
   <v>       0.19391487       0.31962750      -0.23351957 </v>
   <v>      -0.05608513      -0.18037250      -0.23351957 </v>
   <v>      -0.05818779       0.01122260      -0.32996582 </v>
   <v>       0.05818778       0.48877740       0.32996576 </v>
   <v>       0.43318778       0.26122260       0.07996576 </v>
   <v>      -0.20531354       0.37413882       0.17158168 </v>
   <v>      -0.20531354      -0.12586118       0.17158168 </v>
   <v>       0.30818778      -0.01122260      -0.17003424 </v>
   <v>       0.05608512      -0.31962750       0.23351951 </v>
   <v>       0.18108512      -0.43037250      -0.01648049 </v>
   <v>      -0.06891488      -0.43037250      -0.01648049 </v>
   <v>       0.45531353       0.12586118       0.32841825 </v>
   <v>      -0.29468647       0.12586118      -0.17158175 </v>
   <v>       0.43108512       0.06962750      -0.01648049 </v>
   <v>      -0.31891488       0.06962750      -0.01648049 </v>
   <v>       0.44391487       0.31962750       0.26648043 </v>
   <v>       0.08031353      -0.37586118       0.07841825 </v>
   <v>       0.30818778       0.48877740       0.32996576 </v>
   <v>      -0.18318779      -0.26122260      -0.07996582 </v>
   <v>       0.19391487      -0.18037250      -0.23351957 </v>
   <v>       0.04468646       0.37413882      -0.32841832 </v>
   <v>       0.04468646      -0.12586118      -0.32841832 </v>
   <v>      -0.19181222      -0.01122260       0.32996576 </v>
   <v>      -0.31681222       0.26122260       0.07996576 </v>
   <v>      -0.19181222       0.48877740      -0.17003424 </v>
   <v>       0.30608512      -0.31962750       0.23351951 </v>
   <v>       0.19181221       0.01122260      -0.32996582 </v>
   <v>       0.06891487      -0.06962750      -0.48351957 </v>
   <v>      -0.30818779       0.01122260       0.17003418 </v>
   <v>       0.31891487      -0.06962750      -0.48351957 </v>
   <v>      -0.08031354      -0.12413882       0.42158168 </v>
   <v>       0.31681221      -0.26122260      -0.07996582 </v>
   <v>      -0.06891488       0.06962750       0.48351951 </v>
   <v>       0.44391487      -0.18037250       0.26648043 </v>
   <v>      -0.08031354       0.37586118       0.42158168 </v>
   <v>       0.30608512       0.18037250      -0.26648049 </v>
   <v>       0.06681221      -0.26122260       0.42003418 </v>
   <v>       0.43108512       0.06962750       0.48351951 </v>
   <v>       0.41968646      -0.12413882       0.42158168 </v>
   <v>       0.41968646       0.37586118       0.42158168 </v>
   <v>      -0.30608513       0.31962750      -0.23351957 </v>
   <v>      -0.33031354      -0.12413882      -0.07841832 </v>
   <v>      -0.33031354       0.37586118      -0.07841832 </v>
   <v>      -0.20531354       0.37413882      -0.32841832 </v>
   <v>      -0.20531354      -0.12586118      -0.32841832 </v>
   <v>      -0.06681222       0.26122260      -0.42003424 </v>
   <v>       0.41968646      -0.12413882      -0.07841832 </v>
   <v>       0.18318778       0.26122260      -0.42003424 </v>
   <v>       0.41968646       0.37586118      -0.07841832 </v>
   <v>       0.08031353       0.12413882      -0.42158175 </v>
   <v>       0.31681221      -0.26122260       0.42003418 </v>
   <v>       0.20531353      -0.37413882       0.32841825 </v>
   <v>      -0.04468647      -0.37413882      -0.17158175 </v>
   <v>       0.33031353       0.12413882      -0.42158175 </v>
   <v>      -0.16968647       0.12413882      -0.42158175 </v>
   <v>       0.43318778      -0.23877740       0.07996576 </v>
   <v>       0.30818778       0.48877740      -0.17003424 </v>
   <v>       0.05608512      -0.31962750      -0.26648049 </v>
   <v>      -0.44391488       0.18037250       0.23351951 </v>
   <v>       0.44181221      -0.48877740       0.17003418 </v>
   <v>       0.06891487       0.43037250      -0.48351957 </v>
   <v>      -0.18318779       0.23877740       0.42003418 </v>
   <v>       0.33031353      -0.37586118       0.07841825 </v>
   <v>      -0.16968647      -0.37586118       0.07841825 </v>
   <v>      -0.30818779       0.01122260      -0.32996582 </v>
   <v>      -0.05818779      -0.48877740      -0.32996582 </v>
   <v>       0.31891487       0.43037250      -0.48351957 </v>
   <v>      -0.30608513      -0.18037250      -0.23351957 </v>
   <v>      -0.04468647      -0.37413882       0.32841825 </v>
   <v>       0.20531353      -0.37413882      -0.17158175 </v>
   <v>      -0.44181222      -0.01122260       0.32996576 </v>
   <v>      -0.19391488      -0.31962750       0.23351951 </v>
   <v>      -0.29468647       0.12586118       0.32841825 </v>
   <v>       0.45531353       0.12586118      -0.17158175 </v>
   <v>      -0.30608513       0.31962750       0.26648043 </v>
   <v>      -0.19181222       0.48877740       0.32996576 </v>
   <v>      -0.31681222      -0.23877740       0.07996576 </v>
   <v>      -0.45531354       0.37413882       0.17158168 </v>
   <v>      -0.45531354      -0.12586118       0.17158168 </v>
   <v>       0.18108512      -0.43037250       0.48351951 </v>
   <v>      -0.19391488      -0.31962750      -0.26648049 </v>
   <v>      -0.41968647       0.12413882       0.07841825 </v>
   <v>       0.43318778       0.26122260      -0.42003424 </v>
   <v>      -0.43318779       0.23877740      -0.07996582 </v>
   <v>       0.29468646       0.37413882      -0.32841832 </v>
   <v>       0.29468646      -0.12586118      -0.32841832 </v>
   <v>       0.19181221      -0.48877740      -0.32996582 </v>
   <v>      -0.43318779       0.23877740       0.42003418 </v>
   <v>      -0.06681222      -0.23877740      -0.42003424 </v>
   <v>      -0.30818779      -0.48877740       0.17003418 </v>
   <v>       0.43108512      -0.43037250      -0.01648049 </v>
   <v>       0.18318778      -0.23877740      -0.42003424 </v>
   <v>      -0.30608513      -0.18037250       0.26648043 </v>
   <v>      -0.31891488      -0.43037250      -0.01648049 </v>
   <v>      -0.44181222      -0.01122260      -0.17003424 </v>
   <v>      -0.43108513      -0.06962750       0.01648043 </v>
   <v>      -0.31681222       0.26122260      -0.42003424 </v>
   <v>      -0.18108513      -0.06962750      -0.48351957 </v>
   <v>      -0.44391488       0.18037250      -0.26648049 </v>
   <v>       0.44391487       0.31962750      -0.23351957 </v>
   <v>      -0.18318779      -0.26122260       0.42003418 </v>
   <v>       0.45531353      -0.37413882       0.32841825 </v>
   <v>      -0.29468647      -0.37413882      -0.17158175 </v>
   <v>      -0.30818779      -0.48877740      -0.32996582 </v>
   <v>      -0.44181222       0.48877740       0.32996576 </v>
   <v>       0.30608512      -0.31962750      -0.26648049 </v>
   <v>      -0.06891488      -0.43037250       0.48351951 </v>
   <v>      -0.43108513       0.43037250       0.01648043 </v>
   <v>       0.43108512      -0.43037250       0.48351951 </v>
   <v>      -0.18108513       0.43037250      -0.48351957 </v>
   <v>      -0.43108513      -0.06962750      -0.48351957 </v>
   <v>       0.44181221       0.01122260      -0.32996582 </v>
   <v>       0.44391487      -0.18037250      -0.23351957 </v>
   <v>       0.43318778      -0.23877740      -0.42003424 </v>
   <v>      -0.44391488      -0.31962750       0.23351951 </v>
   <v>      -0.41968647       0.12413882      -0.42158175 </v>
   <v>      -0.31891488       0.06962750       0.48351951 </v>
   <v>      -0.43318779      -0.26122260      -0.07996582 </v>
   <v>      -0.44181222       0.48877740      -0.17003424 </v>
   <v>      -0.43318779      -0.26122260       0.42003418 </v>
   <v>      -0.31681222      -0.23877740      -0.42003424 </v>
   <v>      -0.43108513       0.43037250      -0.48351957 </v>
   <v>       0.08031353      -0.37586118      -0.42158175 </v>
   <v>      -0.45531354       0.37413882      -0.32841832 </v>
   <v>      -0.45531354      -0.12586118      -0.32841832 </v>
   <v>       0.33031353      -0.37586118      -0.42158175 </v>
   <v>      -0.16968647      -0.37586118      -0.42158175 </v>
   <v>      -0.33031354      -0.12413882       0.42158168 </v>
   <v>      -0.33031354       0.37586118       0.42158168 </v>
   <v>      -0.29468647      -0.37413882       0.32841825 </v>
   <v>       0.45531353      -0.37413882      -0.17158175 </v>
   <v>       0.44181221      -0.48877740      -0.32996582 </v>
   <v>      -0.41968647      -0.37586118       0.07841825 </v>
   <v>      -0.44391488      -0.31962750      -0.26648049 </v>
   <v>      -0.31891488      -0.43037250       0.48351951 </v>
   <v>      -0.41968647      -0.37586118      -0.42158175 </v>
  </varray>
 </structure>
 <varray name="primitive_index" >
  <v type="int" >        1 </v>
  <v type="int" >       65 </v>
  <v type="int" >       81 </v>
  <v type="int" >      129 </v>
  <v type="int" >      185 </v>
  <v type="int" >      188 </v>
  <v type="int" >      149 </v>
  <v type="int" >      121 </v>
  <v type="int" >       84 </v>
  <v type="int" >       68 </v>
  <v type="int" >       17 </v>
  <v type="int" >       21 </v>
  <v type="int" >       49 </v>
  <v type="int" >       60 </v>
  <v type="int" >      161 </v>
  <v type="int" >      130 </v>
  <v type="int" >      109 </v>
  <v type="int" >      145 </v>
  <v type="int" >        2 </v>
  <v type="int" >        4 </v>
  <v type="int" >      101 </v>
  <v type="int" >       48 </v>
  <v type="int" >       45 </v>
  <v type="int" >       44 </v>
  <v type="int" >       41 </v>
  <v type="int" >      124 </v>
  <v type="int" >       52 </v>
  <v type="int" >       57 </v>
  <v type="int" >       18 </v>
  <v type="int" >       22 </v>
  <v type="int" >      164 </v>
  <v type="int" >      102 </v>
  <v type="int" >      152 </v>
  <v type="int" >      165 </v>
  <v type="int" >      150 </v>
  <v type="int" >       85 </v>
  <v type="int" >      137 </v>
  <v type="int" >      172 </v>
  <v type="int" >       88 </v>
  <v type="int" >      122 </v>
  <v type="int" >      112 </v>
  <v type="int" >      113 </v>
  <v type="int" >       69 </v>
  <v type="int" >      125 </v>
  <v type="int" >      168 </v>
  <v type="int" >      132 </v>
  <v type="int" >      114 </v>
  <v type="int" >      148 </v>
  <v type="int" >       72 </v>
  <v type="int" >      177 </v>
  <v type="int" >      146 </v>
  <v type="int" >       37 </v>
  <v type="int" >       33 </v>
  <v type="int" >      140 </v>
  <v type="int" >      105 </v>
  <v type="int" >       66 </v>
  <v type="int" >      169 </v>
  <v type="int" >      176 </v>
  <v type="int" >       76 </v>
  <v type="int" >       97 </v>
  <v type="int" >       82 </v>
  <v type="int" >       20 </v>
  <v type="int" >       24 </v>
  <v type="int" >      110 </v>
  <v type="int" >      133 </v>
  <v type="int" >      189 </v>
  <v type="int" >      192 </v>
  <v type="int" >       50 </v>
  <v type="int" >       59 </v>
  <v type="int" >      186 </v>
  <v type="int" >      187 </v>
  <v type="int" >      162 </v>
  <v type="int" >        5 </v>
  <v type="int" >       98 </v>
  <v type="int" >      128 </v>
  <v type="int" >      173 </v>
  <v type="int" >       25 </v>
  <v type="int" >       29 </v>
  <v type="int" >      104 </v>
  <v type="int" >       83 </v>
  <v type="int" >      108 </v>
  <v type="int" >      134 </v>
  <v type="int" >       73 </v>
  <v type="int" >      157 </v>
  <v type="int" >       67 </v>
  <v type="int" >      158 </v>
  <v type="int" >       40 </v>
  <v type="int" >      126 </v>
  <v type="int" >      180 </v>
  <v type="int" >      166 </v>
  <v type="int" >       36 </v>
  <v type="int" >      138 </v>
  <v type="int" >      117 </v>
  <v type="int" >      178 </v>
  <v type="int" >       38 </v>
  <v type="int" >       34 </v>
  <v type="int" >      171 </v>
  <v type="int" >       47 </v>
  <v type="int" >       43 </v>
  <v type="int" >       28 </v>
  <v type="int" >       32 </v>
  <v type="int" >       92 </v>
  <v type="int" >       46 </v>
  <v type="int" >       89 </v>
  <v type="int" >       42 </v>
  <v type="int" >        9 </v>
  <v type="int" >      118 </v>
  <v type="int" >       53 </v>
  <v type="int" >       64 </v>
  <v type="int" >       10 </v>
  <v type="int" >       12 </v>
  <v type="int" >       86 </v>
  <v type="int" >      106 </v>
  <v type="int" >      141 </v>
  <v type="int" >      131 </v>
  <v type="int" >       70 </v>
  <v type="int" >      153 </v>
  <v type="int" >      116 </v>
  <v type="int" >        6 </v>
  <v type="int" >        8 </v>
  <v type="int" >       75 </v>
  <v type="int" >       80 </v>
  <v type="int" >      154 </v>
  <v type="int" >      175 </v>
  <v type="int" >       56 </v>
  <v type="int" >       61 </v>
  <v type="int" >      103 </v>
  <v type="int" >      136 </v>
  <v type="int" >       51 </v>
  <v type="int" >       58 </v>
  <v type="int" >      163 </v>
  <v type="int" >      100 </v>
  <v type="int" >       87 </v>
  <v type="int" >       19 </v>
  <v type="int" >       23 </v>
  <v type="int" >      181 </v>
  <v type="int" >      144 </v>
  <v type="int" >        3 </v>
  <v type="int" >       90 </v>
  <v type="int" >      123 </v>
  <v type="int" >       26 </v>
  <v type="int" >       30 </v>
  <v type="int" >       77 </v>
  <v type="int" >      115 </v>
  <v type="int" >       96 </v>
  <v type="int" >       71 </v>
  <v type="int" >      190 </v>
  <v type="int" >       93 </v>
  <v type="int" >      167 </v>
  <v type="int" >      191 </v>
  <v type="int" >      111 </v>
  <v type="int" >      151 </v>
  <v type="int" >       91 </v>
  <v type="int" >      160 </v>
  <v type="int" >      139 </v>
  <v type="int" >      170 </v>
  <v type="int" >      120 </v>
  <v type="int" >       54 </v>
  <v type="int" >       63 </v>
  <v type="int" >       79 </v>
  <v type="int" >       99 </v>
  <v type="int" >      142 </v>
  <v type="int" >      184 </v>
  <v type="int" >      147 </v>
  <v type="int" >      182 </v>
  <v type="int" >      156 </v>
  <v type="int" >      159 </v>
  <v type="int" >       74 </v>
  <v type="int" >      174 </v>
  <v type="int" >       94 </v>
  <v type="int" >      135 </v>
  <v type="int" >       11 </v>
  <v type="int" >      179 </v>
  <v type="int" >      127 </v>
  <v type="int" >      107 </v>
  <v type="int" >      119 </v>
  <v type="int" >       95 </v>
  <v type="int" >      155 </v>
  <v type="int" >       13 </v>
  <v type="int" >       27 </v>
  <v type="int" >       31 </v>
  <v type="int" >       14 </v>
  <v type="int" >       16 </v>
  <v type="int" >       39 </v>
  <v type="int" >       35 </v>
  <v type="int" >       55 </v>
  <v type="int" >       62 </v>
  <v type="int" >       78 </v>
  <v type="int" >        7 </v>
  <v type="int" >      143 </v>
  <v type="int" >      183 </v>
  <v type="int" >       15 </v>
 </varray>
 <kpoints>
  <generation param="Gamma">
   <v type="int" name="divisions">       2        2        2 </v>
   <v name="usershift">      0.00000000       0.00000000       0.00000000 </v>
   <v name="genvec1">      0.50000000       0.00000000       0.00000000 </v>
   <v name="genvec2">      0.00000000       0.50000000       0.00000000 </v>
   <v name="genvec3">      0.00000000       0.00000000       0.50000000 </v>
   <v name="shift">      0.00000000       0.00000000       0.00000000 </v>
  </generation>
  <varray name="kpointlist" >
   <v>       0.00000000       0.00000000       0.00000000 </v>
   <v>       0.50000000       0.00000000      -0.00000000 </v>
   <v>       0.00000000       0.50000000       0.00000000 </v>
   <v>       0.50000000       0.50000000      -0.00000000 </v>
   <v>      -0.00000000       0.00000000       0.50000000 </v>
   <v>       0.50000000       0.00000000       0.50000000 </v>
   <v>      -0.00000000       0.50000000       0.50000000 </v>
   <v>       0.50000000       0.50000000       0.50000000 </v>
  </varray>
  <varray name="weights" >
   <v>       0.12500000 </v>
   <v>       0.12500000 </v>
   <v>       0.12500000 </v>
   <v>       0.12500000 </v>
   <v>       0.12500000 </v>
   <v>       0.12500000 </v>
   <v>       0.12500000 </v>
   <v>       0.12500000 </v>
  </varray>
 </kpoints>
 <parameters>
  <separator name="general" >
   <i type="string" name="SYSTEM">unknown system</i>
   <i type="logical" name="LCOMPAT"> F  </i>
  </separator>
  <separator name="electronic" >
   <i type="string" name="PREC">accura</i>
   <i name="ENMAX">    650.00000000</i>
   <i name="ENAUG">    446.84200000</i>
   <i name="EDIFF">      0.00000001</i>
   <i type="int" name="IALGO">    38</i>
   <i type="int" name="IWAVPR">    10</i>
   <i type="int" name="NBANDS">  1075</i>
   <i name="NELECT">   1792.00000000</i>
   <i type="int" name="TURBO">     0</i>
   <i type="int" name="IRESTART">     0</i>
   <i type="int" name="NREBOOT">     0</i>
   <i type="int" name="NMIN">     0</i>
   <i name="EREF">      0.00000000</i>
   <separator name="electronic smearing" >
    <i type="int" name="ISMEAR">     0</i>
    <i name="SIGMA">      0.05000000</i>
    <i name="KSPACING">      0.50000000</i>
    <i type="logical" name="KGAMMA"> T  </i>
   </separator>
   <separator name="electronic projectors" >
    <i type="logical" name="LREAL"> F  </i>
    <v name="ROPT">      0.00000000      0.00000000</v>
    <i type="int" name="LMAXPAW">  -100</i>
    <i type="int" name="LMAXMIX">     2</i>
    <i type="logical" name="NLSPLINE"> F  </i>
   </separator>
   <separator name="electronic startup" >
    <i type="int" name="ISTART">     0</i>
    <i type="int" name="ICHARG">     1</i>
    <i type="int" name="INIWAV">     1</i>
   </separator>
   <separator name="electronic spin" >
    <i type="int" name="ISPIN">     1</i>
    <i type="logical" name="LNONCOLLINEAR"> F  </i>
    <v name="MAGMOM">      1.00000000      1.00000000      1.00000000      1.00000000      1.00000000      1.00000000      1.00000000      1.00000000      1.00000000      1.00000000      1.00000000      1.00000000      1.00000000      1.00000000      1.00000000      1.00000000      1.00000000      1.00000000      1.00000000      1.00000000
      1.00000000      1.00000000      1.00000000      1.00000000      1.00000000      1.00000000      1.00000000      1.00000000      1.00000000      1.00000000      1.00000000      1.00000000      1.00000000      1.00000000      1.00000000      1.00000000      1.00000000      1.00000000      1.00000000      1.00000000
      1.00000000      1.00000000      1.00000000      1.00000000      1.00000000      1.00000000      1.00000000      1.00000000      1.00000000      1.00000000      1.00000000      1.00000000      1.00000000      1.00000000      1.00000000      1.00000000      1.00000000      1.00000000      1.00000000      1.00000000
      1.00000000      1.00000000      1.00000000      1.00000000      1.00000000      1.00000000      1.00000000      1.00000000      1.00000000      1.00000000      1.00000000      1.00000000      1.00000000      1.00000000      1.00000000      1.00000000      1.00000000      1.00000000      1.00000000      1.00000000
      1.00000000      1.00000000      1.00000000      1.00000000      1.00000000      1.00000000      1.00000000      1.00000000      1.00000000      1.00000000      1.00000000      1.00000000      1.00000000      1.00000000      1.00000000      1.00000000      1.00000000      1.00000000      1.00000000      1.00000000
      1.00000000      1.00000000      1.00000000      1.00000000      1.00000000      1.00000000      1.00000000      1.00000000      1.00000000      1.00000000      1.00000000      1.00000000      1.00000000      1.00000000      1.00000000      1.00000000      1.00000000      1.00000000      1.00000000      1.00000000
      1.00000000      1.00000000      1.00000000      1.00000000      1.00000000      1.00000000      1.00000000      1.00000000      1.00000000      1.00000000      1.00000000      1.00000000      1.00000000      1.00000000      1.00000000      1.00000000      1.00000000      1.00000000      1.00000000      1.00000000
      1.00000000      1.00000000      1.00000000      1.00000000      1.00000000      1.00000000      1.00000000      1.00000000      1.00000000      1.00000000      1.00000000      1.00000000      1.00000000      1.00000000      1.00000000      1.00000000      1.00000000      1.00000000      1.00000000      1.00000000
      1.00000000      1.00000000      1.00000000      1.00000000      1.00000000      1.00000000      1.00000000      1.00000000      1.00000000      1.00000000      1.00000000      1.00000000      1.00000000      1.00000000      1.00000000      1.00000000      1.00000000      1.00000000      1.00000000      1.00000000
      1.00000000      1.00000000      1.00000000      1.00000000      1.00000000      1.00000000      1.00000000      1.00000000      1.00000000      1.00000000      1.00000000      1.00000000</v>
    <i name="NUPDOWN">     -1.00000000</i>
    <i type="logical" name="LSORBIT"> F  </i>
    <v name="SAXIS">      0.00000000      0.00000000      1.00000000</v>
    <i type="logical" name="LSPIRAL"> F  </i>
    <v name="QSPIRAL">      0.00000000      0.00000000      0.00000000</v>
    <i type="logical" name="LZEROZ"> F  </i>
   </separator>
   <separator name="electronic exchange-correlation" >
    <i type="logical" name="LASPH"> T  </i>
    <i type="logical" name="LMETAGGA"> F  </i>
   </separator>
   <separator name="electronic convergence" >
    <i type="int" name="NELM">   200</i>
    <i type="int" name="NELMDL">     0</i>
    <i type="int" name="NELMIN">     8</i>
    <i name="ENINI">    650.00000000</i>
    <separator name="electronic convergence detail" >
     <i type="logical" name="LDIAG"> T  </i>
     <i type="logical" name="LSUBROT"> F  </i>
     <i name="WEIMIN">      0.00000000</i>
     <i name="EBREAK">      0.00000000</i>
     <i name="DEPER">      0.30000000</i>
     <i type="int" name="NRMM">     4</i>
     <i name="TIME">      0.40000000</i>
    </separator>
   </separator>
   <separator name="electronic mixer" >
    <i name="AMIX">      0.40000000</i>
    <i name="BMIX">      1.00000000</i>
    <i name="AMIN">      0.10000000</i>
    <i name="AMIX_MAG">      1.60000000</i>
    <i name="BMIX_MAG">      1.00000000</i>
    <separator name="electronic mixer details" >
     <i type="int" name="IMIX">     4</i>
     <i type="logical" name="MIXFIRST"> F  </i>
     <i type="int" name="MAXMIX">   -45</i>
     <i name="WC">    100.00000000</i>
     <i type="int" name="INIMIX">     1</i>
     <i type="int" name="MIXPRE">     1</i>
     <i type="int" name="MREMOVE">     5</i>
    </separator>
   </separator>
   <separator name="electronic dipolcorrection" >
    <i type="logical" name="LDIPOL"> F  </i>
    <i type="logical" name="LMONO"> F  </i>
    <i type="int" name="IDIPOL">     0</i>
    <i name="EPSILON">      1.00000000</i>
    <v name="DIPOL">   -100.00000000   -100.00000000   -100.00000000</v>
    <i name="EFIELD">      0.00000000</i>
   </separator>
  </separator>
  <separator name="grids" >
   <i type="int" name="NGX">   150</i>
   <i type="int" name="NGY">   120</i>
   <i type="int" name="NGZ">   140</i>
   <i type="int" name="NGXF">   300</i>
   <i type="int" name="NGYF">   240</i>
   <i type="int" name="NGZF">   280</i>
   <i type="logical" name="ADDGRID"> T  </i>
  </separator>
  <separator name="ionic" >
   <i type="int" name="NSW">     0</i>
   <i type="int" name="IBRION">    -1</i>
   <i type="int" name="MDALGO">     0</i>
   <i type="int" name="ISIF">     3</i>
   <i name="PSTRESS">      0.00000000</i>
   <i name="EDIFFG">      0.00000010</i>
   <i type="int" name="NFREE">     0</i>
   <i name="POTIM">      0.50000000</i>
   <i name="SMASS">     -3.00000000</i>
   <i name="SCALEE">      1.00000000</i>
  </separator>
  <separator name="ionic md" >
   <i name="TEBEG">      0.00010000</i>
   <i name="TEEND">      0.00010000</i>
   <i type="int" name="NBLOCK">     1</i>
   <i type="int" name="KBLOCK">     1</i>
   <i type="int" name="NPACO">   256</i>
   <i name="APACO">     16.00000000</i>
  </separator>
  <separator name="symmetry" >
   <i type="int" name="ISYM">     2</i>
   <i name="SYMPREC">      0.00001000</i>
  </separator>
  <separator name="dos" >
   <i type="int" name="LORBIT">     0</i>
   <v name="RWIGS">     -1.00000000     -1.00000000</v>
   <i type="int" name="NEDOS">   301</i>
   <i name="EMIN">     10.00000000</i>
   <i name="EMAX">    -10.00000000</i>
   <i name="EFERMI">      0.00000000</i>
  </separator>
  <separator name="writing" >
   <i type="int" name="NWRITE">     2</i>
   <i type="logical" name="LWAVE"> F  </i>
   <i type="logical" name="LDOWNSAMPLE"> F  </i>
   <i type="logical" name="LCHARG"> T  </i>
   <i type="logical" name="LPARD"> F  </i>
   <i type="logical" name="LVTOT"> F  </i>
   <i type="logical" name="LVHAR"> F  </i>
   <i type="logical" name="LELF"> F  </i>
   <i type="logical" name="LOPTICS"> F  </i>
   <v name="STM">      0.00000000      0.00000000      0.00000000      0.00000000      0.00000000      0.00000000      0.00000000</v>
  </separator>
  <separator name="performance" >
   <i type="int" name="NPAR">     1</i>
   <i type="int" name="NSIM">     4</i>
   <i type="int" name="NBLK">    -1</i>
   <i type="logical" name="LPLANE"> T  </i>
   <i type="logical" name="LSCALAPACK"> T  </i>
   <i type="logical" name="LSCAAWARE"> F  </i>
   <i type="logical" name="LSCALU"> F  </i>
   <i type="logical" name="LASYNC"> F  </i>
   <i type="logical" name="LORBITALREAL"> F  </i>
  </separator>
  <separator name="miscellaneous" >
   <i type="int" name="IDIOT">     3</i>
   <i type="int" name="ISPECIAL">     0</i>
   <i type="logical" name="LMUSIC"> F  </i>
   <v name="POMASS">     78.96000000    107.86800000</v>
   <v name="DARWINR">      0.00000000      0.00000000</v>
   <v name="DARWINV">      1.00000000      1.00000000</v>
   <i type="logical" name="LCORR"> T  </i>
  </separator>
  <i type="logical" name="GGA_COMPAT"> T  </i>
  <i type="logical" name="LBERRY"> F  </i>
  <i type="int" name="ICORELEVEL">     0</i>
  <i type="logical" name="LDAU"> F  </i>
  <i type="int" name="I_CONSTRAINED_M">     0</i>
  <separator name="electronic exchange-correlation" >
   <i type="string" name="GGA">PS</i>
   <i type="int" name="VOSKOWN">     0</i>
   <i type="logical" name="LHFCALC"> F  </i>
   <i type="string" name="PRECFOCK"></i>
   <i type="logical" name="LSYMGRAD"> F  </i>
   <i type="logical" name="LHFONE"> F  </i>
   <i type="logical" name="LRHFCALC"> F  </i>
   <i type="logical" name="LTHOMAS"> F  </i>
   <i type="logical" name="LMODELHF"> F  </i>
   <i name="ENCUT4O">     -1.00000000</i>
   <i type="int" name="EXXOEP">     0</i>
   <i type="int" name="FOURORBIT">     0</i>
   <i name="AEXX">      0.00000000</i>
   <i name="HFALPHA">      0.00000000</i>
   <i name="MCALPHA">      0.00000000</i>
   <i name="ALDAX">      1.00000000</i>
   <i name="AGGAX">      1.00000000</i>
   <i name="ALDAC">      1.00000000</i>
   <i name="AGGAC">      1.00000000</i>
   <i type="int" name="NKREDX">     1</i>
   <i type="int" name="NKREDY">     1</i>
   <i type="int" name="NKREDZ">     1</i>
   <i type="logical" name="SHIFTRED"> F  </i>
   <i type="logical" name="ODDONLY"> F  </i>
   <i type="logical" name="EVENONLY"> F  </i>
   <i type="int" name="LMAXFOCK">     0</i>
   <i type="int" name="NMAXFOCKAE">     0</i>
   <i type="logical" name="LFOCKAEDFT"> F  </i>
   <i name="HFSCREEN">      0.00000000</i>
   <i name="HFSCREENC">      0.00000000</i>
   <i type="int" name="NBANDSGWLOW">     0</i>
  </separator>
  <separator name="vdW DFT" >
   <i type="logical" name="LUSE_VDW"> F  </i>
   <i name="Zab_VDW">     -0.84910000</i>
   <i name="PARAM1">      0.12340000</i>
   <i name="PARAM2">      1.00000000</i>
   <i name="PARAM3">      0.00000000</i>
  </separator>
  <separator name="model GW" >
   <i type="int" name="MODEL_GW">     0</i>
   <i name="MODEL_EPS0">     11.58913698</i>
   <i name="MODEL_ALPHA">      1.00000000</i>
  </separator>
  <separator name="linear response parameters" >
   <i type="logical" name="LEPSILON"> F  </i>
   <i type="logical" name="LRPA"> F  </i>
   <i type="logical" name="LNABLA"> F  </i>
   <i type="logical" name="LVEL"> F  </i>
   <i type="int" name="KINTER">     0</i>
   <i name="CSHIFT">      0.10000000</i>
   <i name="OMEGAMAX">     -1.00000000</i>
   <i name="DEG_THRESHOLD">      0.00200000</i>
   <i name="RTIME">     -0.10000000</i>
   <i name="WPLASMAI">      0.00000000</i>
   <v name="DFIELD">      0.00000000      0.00000000      0.00000000</v>
   <v name="WPLASMA">      0.00000000      0.00000000      0.00000000      0.00000000      0.00000000      0.00000000      0.00000000      0.00000000      0.00000000</v>
  </separator>
  <separator name="orbital magnetization" >
   <i type="logical" name="NUCIND"> F  </i>
   <v name="MAGPOS">      0.00000000      0.00000000      0.00000000</v>
   <i type="logical" name="LNICSALL"> T  </i>
   <i type="logical" name="ORBITALMAG"> F  </i>
   <i type="logical" name="LMAGBLOCH"> F  </i>
   <i type="logical" name="LCHIMAG"> F  </i>
   <i type="logical" name="LGAUGE"> T  </i>
   <i type="int" name="MAGATOM">     0</i>
   <v name="MAGDIPOL">      0.00000000      0.00000000      0.00000000</v>
   <v name="AVECCONST">      0.00000000      0.00000000      0.00000000</v>
  </separator>
  <separator name="response functions" >
   <i type="logical" name="LADDER"> F  </i>
   <i type="logical" name="LRPAFORCE"> F  </i>
   <i type="logical" name="LFXC"> F  </i>
   <i type="logical" name="LHARTREE"> T  </i>
   <i type="int" name="IBSE">     0</i>
   <v type="int" name="KPOINT">    -1     0     0     0</v>
   <i type="logical" name="LTCTE"> F  </i>
   <i type="logical" name="LTETE"> F  </i>
   <i type="logical" name="LTRIPLET"> F  </i>
   <i type="logical" name="LFXCEPS"> F  </i>
   <i type="logical" name="LFXHEG"> F  </i>
   <i type="int" name="NATURALO">     2</i>
   <i type="logical" name="L2ORDER"> F  </i>
   <i type="logical" name="LMP2LT"> F  </i>
   <i type="logical" name="LUSEW"> F  </i>
   <i name="ENCUTGW">     -2.00000000</i>
   <i name="ENCUTGWSOFT">     -2.00000000</i>
   <i name="ENCUTLF">     -1.00000000</i>
   <i type="int" name="LMAXMP2">    -1</i>
   <i name="SCISSOR">      0.00000000</i>
   <i type="int" name="NOMEGA">     0</i>
   <i type="int" name="NOMEGAR">     0</i>
   <i type="int" name="NBANDSGW">    -1</i>
   <i type="int" name="NBANDSO">    -1</i>
   <i type="int" name="NBANDSV">    -1</i>
   <i type="int" name="NELM">   200</i>
   <i type="int" name="NELMHF">     1</i>
   <i type="int" name="DIM">     3</i>
   <i type="int" name="ANTIRES">     0</i>
   <i name="OMEGAMAX">    -30.00000000</i>
   <i name="OMEGAMIN">    -30.00000000</i>
   <i name="OMEGATL">   -200.00000000</i>
   <i type="int" name="OMEGAGRID">   140</i>
   <i name="CSHIFT">     -0.10000000</i>
   <i type="logical" name="SELFENERGY"> F  </i>
   <i type="logical" name="LSPECTRAL"> F  </i>
   <i type="logical" name="LSPECTRALGW"> F  </i>
   <i type="logical" name="LSINGLES"> F  </i>
   <i type="logical" name="LFERMIGW"> F  </i>
   <i type="logical" name="ODDONLYGW"> F  </i>
   <i type="logical" name="EVENONLYGW"> F  </i>
   <i type="int" name="NKREDLFX">     1</i>
   <i type="int" name="NKREDLFY">     1</i>
   <i type="int" name="NKREDLFZ">     1</i>
   <i type="int" name="MAXMEM">  2800</i>
   <i type="int" name="TELESCOPE">     0</i>
   <i type="int" name="TAUPAR">     1</i>
   <i type="int" name="OMEGAPAR">    -1</i>
   <i name="LAMBDA">      1.00000000</i>
  </separator>
  <separator name="External order field" >
   <i name="OFIELD_KAPPA">      0.00000000</i>
   <v name="OFIELD_K">      0.00000000      0.00000000      0.00000000</v>
   <i name="OFIELD_Q6_NEAR">      0.00000000</i>
   <i name="OFIELD_Q6_FAR">      0.00000000</i>
   <i name="OFIELD_A">      0.00000000</i>
  </separator>
 </parameters>
 <atominfo>
  <atoms>     192 </atoms>
  <types>       2 </types>
  <array name="atoms" >
   <dimension dim="1">ion</dimension>
   <field type="string">element</field>
   <field type="int">atomtype</field>
   <set>
    <rc><c>Se</c><c>   1</c></rc>
    <rc><c>Se</c><c>   1</c></rc>
    <rc><c>Se</c><c>   1</c></rc>
    <rc><c>Se</c><c>   1</c></rc>
    <rc><c>Se</c><c>   1</c></rc>
    <rc><c>Se</c><c>   1</c></rc>
    <rc><c>Se</c><c>   1</c></rc>
    <rc><c>Se</c><c>   1</c></rc>
    <rc><c>Se</c><c>   1</c></rc>
    <rc><c>Se</c><c>   1</c></rc>
    <rc><c>Se</c><c>   1</c></rc>
    <rc><c>Se</c><c>   1</c></rc>
    <rc><c>Se</c><c>   1</c></rc>
    <rc><c>Se</c><c>   1</c></rc>
    <rc><c>Se</c><c>   1</c></rc>
    <rc><c>Se</c><c>   1</c></rc>
    <rc><c>Se</c><c>   1</c></rc>
    <rc><c>Se</c><c>   1</c></rc>
    <rc><c>Se</c><c>   1</c></rc>
    <rc><c>Se</c><c>   1</c></rc>
    <rc><c>Se</c><c>   1</c></rc>
    <rc><c>Se</c><c>   1</c></rc>
    <rc><c>Se</c><c>   1</c></rc>
    <rc><c>Se</c><c>   1</c></rc>
    <rc><c>Se</c><c>   1</c></rc>
    <rc><c>Se</c><c>   1</c></rc>
    <rc><c>Se</c><c>   1</c></rc>
    <rc><c>Se</c><c>   1</c></rc>
    <rc><c>Se</c><c>   1</c></rc>
    <rc><c>Se</c><c>   1</c></rc>
    <rc><c>Se</c><c>   1</c></rc>
    <rc><c>Se</c><c>   1</c></rc>
    <rc><c>Se</c><c>   1</c></rc>
    <rc><c>Se</c><c>   1</c></rc>
    <rc><c>Se</c><c>   1</c></rc>
    <rc><c>Se</c><c>   1</c></rc>
    <rc><c>Se</c><c>   1</c></rc>
    <rc><c>Se</c><c>   1</c></rc>
    <rc><c>Se</c><c>   1</c></rc>
    <rc><c>Se</c><c>   1</c></rc>
    <rc><c>Se</c><c>   1</c></rc>
    <rc><c>Se</c><c>   1</c></rc>
    <rc><c>Se</c><c>   1</c></rc>
    <rc><c>Se</c><c>   1</c></rc>
    <rc><c>Se</c><c>   1</c></rc>
    <rc><c>Se</c><c>   1</c></rc>
    <rc><c>Se</c><c>   1</c></rc>
    <rc><c>Se</c><c>   1</c></rc>
    <rc><c>Se</c><c>   1</c></rc>
    <rc><c>Se</c><c>   1</c></rc>
    <rc><c>Se</c><c>   1</c></rc>
    <rc><c>Se</c><c>   1</c></rc>
    <rc><c>Se</c><c>   1</c></rc>
    <rc><c>Se</c><c>   1</c></rc>
    <rc><c>Se</c><c>   1</c></rc>
    <rc><c>Se</c><c>   1</c></rc>
    <rc><c>Se</c><c>   1</c></rc>
    <rc><c>Se</c><c>   1</c></rc>
    <rc><c>Se</c><c>   1</c></rc>
    <rc><c>Se</c><c>   1</c></rc>
    <rc><c>Se</c><c>   1</c></rc>
    <rc><c>Se</c><c>   1</c></rc>
    <rc><c>Se</c><c>   1</c></rc>
    <rc><c>Se</c><c>   1</c></rc>
    <rc><c>Ag</c><c>   2</c></rc>
    <rc><c>Ag</c><c>   2</c></rc>
    <rc><c>Ag</c><c>   2</c></rc>
    <rc><c>Ag</c><c>   2</c></rc>
    <rc><c>Ag</c><c>   2</c></rc>
    <rc><c>Ag</c><c>   2</c></rc>
    <rc><c>Ag</c><c>   2</c></rc>
    <rc><c>Ag</c><c>   2</c></rc>
    <rc><c>Ag</c><c>   2</c></rc>
    <rc><c>Ag</c><c>   2</c></rc>
    <rc><c>Ag</c><c>   2</c></rc>
    <rc><c>Ag</c><c>   2</c></rc>
    <rc><c>Ag</c><c>   2</c></rc>
    <rc><c>Ag</c><c>   2</c></rc>
    <rc><c>Ag</c><c>   2</c></rc>
    <rc><c>Ag</c><c>   2</c></rc>
    <rc><c>Ag</c><c>   2</c></rc>
    <rc><c>Ag</c><c>   2</c></rc>
    <rc><c>Ag</c><c>   2</c></rc>
    <rc><c>Ag</c><c>   2</c></rc>
    <rc><c>Ag</c><c>   2</c></rc>
    <rc><c>Ag</c><c>   2</c></rc>
    <rc><c>Ag</c><c>   2</c></rc>
    <rc><c>Ag</c><c>   2</c></rc>
    <rc><c>Ag</c><c>   2</c></rc>
    <rc><c>Ag</c><c>   2</c></rc>
    <rc><c>Ag</c><c>   2</c></rc>
    <rc><c>Ag</c><c>   2</c></rc>
    <rc><c>Ag</c><c>   2</c></rc>
    <rc><c>Ag</c><c>   2</c></rc>
    <rc><c>Ag</c><c>   2</c></rc>
    <rc><c>Ag</c><c>   2</c></rc>
    <rc><c>Ag</c><c>   2</c></rc>
    <rc><c>Ag</c><c>   2</c></rc>
    <rc><c>Ag</c><c>   2</c></rc>
    <rc><c>Ag</c><c>   2</c></rc>
    <rc><c>Ag</c><c>   2</c></rc>
    <rc><c>Ag</c><c>   2</c></rc>
    <rc><c>Ag</c><c>   2</c></rc>
    <rc><c>Ag</c><c>   2</c></rc>
    <rc><c>Ag</c><c>   2</c></rc>
    <rc><c>Ag</c><c>   2</c></rc>
    <rc><c>Ag</c><c>   2</c></rc>
    <rc><c>Ag</c><c>   2</c></rc>
    <rc><c>Ag</c><c>   2</c></rc>
    <rc><c>Ag</c><c>   2</c></rc>
    <rc><c>Ag</c><c>   2</c></rc>
    <rc><c>Ag</c><c>   2</c></rc>
    <rc><c>Ag</c><c>   2</c></rc>
    <rc><c>Ag</c><c>   2</c></rc>
    <rc><c>Ag</c><c>   2</c></rc>
    <rc><c>Ag</c><c>   2</c></rc>
    <rc><c>Ag</c><c>   2</c></rc>
    <rc><c>Ag</c><c>   2</c></rc>
    <rc><c>Ag</c><c>   2</c></rc>
    <rc><c>Ag</c><c>   2</c></rc>
    <rc><c>Ag</c><c>   2</c></rc>
    <rc><c>Ag</c><c>   2</c></rc>
    <rc><c>Ag</c><c>   2</c></rc>
    <rc><c>Ag</c><c>   2</c></rc>
    <rc><c>Ag</c><c>   2</c></rc>
    <rc><c>Ag</c><c>   2</c></rc>
    <rc><c>Ag</c><c>   2</c></rc>
    <rc><c>Ag</c><c>   2</c></rc>
    <rc><c>Ag</c><c>   2</c></rc>
    <rc><c>Ag</c><c>   2</c></rc>
    <rc><c>Ag</c><c>   2</c></rc>
    <rc><c>Ag</c><c>   2</c></rc>
    <rc><c>Ag</c><c>   2</c></rc>
    <rc><c>Ag</c><c>   2</c></rc>
    <rc><c>Ag</c><c>   2</c></rc>
    <rc><c>Ag</c><c>   2</c></rc>
    <rc><c>Ag</c><c>   2</c></rc>
    <rc><c>Ag</c><c>   2</c></rc>
    <rc><c>Ag</c><c>   2</c></rc>
    <rc><c>Ag</c><c>   2</c></rc>
    <rc><c>Ag</c><c>   2</c></rc>
    <rc><c>Ag</c><c>   2</c></rc>
    <rc><c>Ag</c><c>   2</c></rc>
    <rc><c>Ag</c><c>   2</c></rc>
    <rc><c>Ag</c><c>   2</c></rc>
    <rc><c>Ag</c><c>   2</c></rc>
    <rc><c>Ag</c><c>   2</c></rc>
    <rc><c>Ag</c><c>   2</c></rc>
    <rc><c>Ag</c><c>   2</c></rc>
    <rc><c>Ag</c><c>   2</c></rc>
    <rc><c>Ag</c><c>   2</c></rc>
    <rc><c>Ag</c><c>   2</c></rc>
    <rc><c>Ag</c><c>   2</c></rc>
    <rc><c>Ag</c><c>   2</c></rc>
    <rc><c>Ag</c><c>   2</c></rc>
    <rc><c>Ag</c><c>   2</c></rc>
    <rc><c>Ag</c><c>   2</c></rc>
    <rc><c>Ag</c><c>   2</c></rc>
    <rc><c>Ag</c><c>   2</c></rc>
    <rc><c>Ag</c><c>   2</c></rc>
    <rc><c>Ag</c><c>   2</c></rc>
    <rc><c>Ag</c><c>   2</c></rc>
    <rc><c>Ag</c><c>   2</c></rc>
    <rc><c>Ag</c><c>   2</c></rc>
    <rc><c>Ag</c><c>   2</c></rc>
    <rc><c>Ag</c><c>   2</c></rc>
    <rc><c>Ag</c><c>   2</c></rc>
    <rc><c>Ag</c><c>   2</c></rc>
    <rc><c>Ag</c><c>   2</c></rc>
    <rc><c>Ag</c><c>   2</c></rc>
    <rc><c>Ag</c><c>   2</c></rc>
    <rc><c>Ag</c><c>   2</c></rc>
    <rc><c>Ag</c><c>   2</c></rc>
    <rc><c>Ag</c><c>   2</c></rc>
    <rc><c>Ag</c><c>   2</c></rc>
    <rc><c>Ag</c><c>   2</c></rc>
    <rc><c>Ag</c><c>   2</c></rc>
    <rc><c>Ag</c><c>   2</c></rc>
    <rc><c>Ag</c><c>   2</c></rc>
    <rc><c>Ag</c><c>   2</c></rc>
    <rc><c>Ag</c><c>   2</c></rc>
    <rc><c>Ag</c><c>   2</c></rc>
    <rc><c>Ag</c><c>   2</c></rc>
    <rc><c>Ag</c><c>   2</c></rc>
    <rc><c>Ag</c><c>   2</c></rc>
    <rc><c>Ag</c><c>   2</c></rc>
    <rc><c>Ag</c><c>   2</c></rc>
    <rc><c>Ag</c><c>   2</c></rc>
    <rc><c>Ag</c><c>   2</c></rc>
    <rc><c>Ag</c><c>   2</c></rc>
    <rc><c>Ag</c><c>   2</c></rc>
    <rc><c>Ag</c><c>   2</c></rc>
   </set>
  </array>
  <array name="atomtypes" >
   <dimension dim="1">type</dimension>
   <field type="int">atomspertype</field>
   <field type="string">element</field>
   <field>mass</field>
   <field>valence</field>
   <field type="string">pseudopotential</field>
   <set>
    <rc><c>  64</c><c>Se</c><c>     78.96000000</c><c>      6.00000000</c><c>  PAW_PBE Se 06Sep2000                  </c></rc>
    <rc><c> 128</c><c>Ag</c><c>    107.86800000</c><c>     11.00000000</c><c>  PAW_PBE Ag 02Apr2005                  </c></rc>
   </set>
  </array>
 </atominfo>
 <structure name="initialpos" >
  <crystal>
   <varray name="basis" >
    <v>      17.67434300       0.00000000       0.02590756 </v>
    <v>       0.00000000      13.77516210       0.00000000 </v>
    <v>      -4.23144168       0.00000000      15.22594286 </v>
   </varray>
   <i name="volume">   3708.52383470 </i>
   <varray name="rec_basis" >
    <v>       0.05655615       0.00000000       0.01571752 </v>
    <v>       0.00000000       0.07259443       0.00000000 </v>
    <v>      -0.00009623       0.00000000       0.06565063 </v>
   </varray>
  </crystal>
  <varray name="positions" >
   <v>       0.08031353       0.12413882       0.07841826 </v>
   <v>       0.33031353       0.12413882       0.07841826 </v>
   <v>       0.58031353       0.12413882       0.07841826 </v>
   <v>       0.83031353       0.12413882       0.07841826 </v>
   <v>       0.08031353       0.62413882       0.07841826 </v>
   <v>       0.33031353       0.62413882       0.07841826 </v>
   <v>       0.58031353       0.62413882       0.07841826 </v>
   <v>       0.83031353       0.62413882       0.07841826 </v>
   <v>       0.08031353       0.12413882       0.57841826 </v>
   <v>       0.33031353       0.12413882       0.57841826 </v>
   <v>       0.58031353       0.12413882       0.57841826 </v>
   <v>       0.83031353       0.12413882       0.57841826 </v>
   <v>       0.08031353       0.62413882       0.57841826 </v>
   <v>       0.33031353       0.62413882       0.57841826 </v>
   <v>       0.58031353       0.62413882       0.57841826 </v>
   <v>       0.83031353       0.62413882       0.57841826 </v>
   <v>       0.04468646       0.37413882       0.17158168 </v>
   <v>       0.29468646       0.37413882       0.17158168 </v>
   <v>       0.54468646       0.37413882       0.17158168 </v>
   <v>       0.79468646       0.37413882       0.17158168 </v>
   <v>       0.04468646       0.87413882       0.17158168 </v>
   <v>       0.29468646       0.87413882       0.17158168 </v>
   <v>       0.54468646       0.87413882       0.17158168 </v>
   <v>       0.79468646       0.87413882       0.17158168 </v>
   <v>       0.04468646       0.37413882       0.67158168 </v>
   <v>       0.29468646       0.37413882       0.67158168 </v>
   <v>       0.54468646       0.37413882       0.67158168 </v>
   <v>       0.79468646       0.37413882       0.67158168 </v>
   <v>       0.04468646       0.87413882       0.67158168 </v>
   <v>       0.29468646       0.87413882       0.67158168 </v>
   <v>       0.54468646       0.87413882       0.67158168 </v>
   <v>       0.79468646       0.87413882       0.67158168 </v>
   <v>       0.16968646       0.37586118       0.42158168 </v>
   <v>       0.41968646       0.37586118       0.42158168 </v>
   <v>       0.66968646       0.37586118       0.42158168 </v>
   <v>       0.91968646       0.37586118       0.42158168 </v>
   <v>       0.16968646       0.87586118       0.42158168 </v>
   <v>       0.41968646       0.87586118       0.42158168 </v>
   <v>       0.66968646       0.87586118       0.42158168 </v>
   <v>       0.91968646       0.87586118       0.42158168 </v>
   <v>       0.16968646       0.37586118       0.92158168 </v>
   <v>       0.41968646       0.37586118       0.92158168 </v>
   <v>       0.66968646       0.37586118       0.92158168 </v>
   <v>       0.91968646       0.37586118       0.92158168 </v>
   <v>       0.16968646       0.87586118       0.92158168 </v>
   <v>       0.41968646       0.87586118       0.92158168 </v>
   <v>       0.66968646       0.87586118       0.92158168 </v>
   <v>       0.91968646       0.87586118       0.92158168 </v>
   <v>       0.20531353       0.12586118       0.32841826 </v>
   <v>       0.45531353       0.12586118       0.32841826 </v>
   <v>       0.70531353       0.12586118       0.32841826 </v>
   <v>       0.95531353       0.12586118       0.32841826 </v>
   <v>       0.20531353       0.62586118       0.32841826 </v>
   <v>       0.45531353       0.62586118       0.32841826 </v>
   <v>       0.70531353       0.62586118       0.32841826 </v>
   <v>       0.95531353       0.62586118       0.32841826 </v>
   <v>       0.20531353       0.12586118       0.82841826 </v>
   <v>       0.45531353       0.12586118       0.82841826 </v>
   <v>       0.70531353       0.12586118       0.82841826 </v>
   <v>       0.95531353       0.12586118       0.82841826 </v>
   <v>       0.20531353       0.62586118       0.82841826 </v>
   <v>       0.45531353       0.62586118       0.82841826 </v>
   <v>       0.70531353       0.62586118       0.82841826 </v>
   <v>       0.95531353       0.62586118       0.82841826 </v>
   <v>       0.19181221       0.01194854       0.17003418 </v>
   <v>       0.44181221       0.01122259       0.17003418 </v>
   <v>       0.69181221       0.01122259       0.17003418 </v>
   <v>       0.94181221       0.01122259       0.17003418 </v>
   <v>       0.19181221       0.51122259       0.17003418 </v>
   <v>       0.44181221       0.51122259       0.17003418 </v>
   <v>       0.69181221       0.51122259       0.17003418 </v>
   <v>       0.94181221       0.51122259       0.17003418 </v>
   <v>       0.19181221       0.01122259       0.67003418 </v>
   <v>       0.44181221       0.01122259       0.67003418 </v>
   <v>       0.69181221       0.01122259       0.67003418 </v>
   <v>       0.94181221       0.01122259       0.67003418 </v>
   <v>       0.19181221       0.51122259       0.67003418 </v>
   <v>       0.44181221       0.51122259       0.67003418 </v>
   <v>       0.69181221       0.51122259       0.67003418 </v>
   <v>       0.94181221       0.51122259       0.67003418 </v>
   <v>       0.18318778       0.26122259       0.07996576 </v>
   <v>       0.43318778       0.26122259       0.07996576 </v>
   <v>       0.68318778       0.26122259       0.07996576 </v>
   <v>       0.93318778       0.26122259       0.07996576 </v>
   <v>       0.18318778       0.76122259       0.07996576 </v>
   <v>       0.43318778       0.76122259       0.07996576 </v>
   <v>       0.68318778       0.76122259       0.07996576 </v>
   <v>       0.93318778       0.76122259       0.07996576 </v>
   <v>       0.18318778       0.26122259       0.57996576 </v>
   <v>       0.43318778       0.26122259       0.57996576 </v>
   <v>       0.68318778       0.26122259       0.57996576 </v>
   <v>       0.93318778       0.26122259       0.57996576 </v>
   <v>       0.18318778       0.76122259       0.57996576 </v>
   <v>       0.43318778       0.76122259       0.57996576 </v>
   <v>       0.68318778       0.76122259       0.57996576 </v>
   <v>       0.93318778       0.76122259       0.57996576 </v>
   <v>       0.05818778       0.48877741       0.32996576 </v>
   <v>       0.30818778       0.48877741       0.32996576 </v>
   <v>       0.55818778       0.48877741       0.32996576 </v>
   <v>       0.80818778       0.48877741       0.32996576 </v>
   <v>       0.05818778       0.98877741       0.32996576 </v>
   <v>       0.30818778       0.98877741       0.32996576 </v>
   <v>       0.55818778       0.98877741       0.32996576 </v>
   <v>       0.80818778       0.98877741       0.32996576 </v>
   <v>       0.05818778       0.48877741       0.82996576 </v>
   <v>       0.30818778       0.48877741       0.82996576 </v>
   <v>       0.55818778       0.48877741       0.82996576 </v>
   <v>       0.80818778       0.48877741       0.82996576 </v>
   <v>       0.05818778       0.98877741       0.82996576 </v>
   <v>       0.30818778       0.98877741       0.82996576 </v>
   <v>       0.55818778       0.98877741       0.82996576 </v>
   <v>       0.80818778       0.98877741       0.82996576 </v>
   <v>       0.06681221       0.23877741       0.42003418 </v>
   <v>       0.31681221       0.23877741       0.42003418 </v>
   <v>       0.56681221       0.23877741       0.42003418 </v>
   <v>       0.81681221       0.23877741       0.42003418 </v>
   <v>       0.06681221       0.73877741       0.42003418 </v>
   <v>       0.31681221       0.73877741       0.42003418 </v>
   <v>       0.56681221       0.73877741       0.42003418 </v>
   <v>       0.81681221       0.73877741       0.42003418 </v>
   <v>       0.06681221       0.23877741       0.92003418 </v>
   <v>       0.31681221       0.23877741       0.92003418 </v>
   <v>       0.56681221       0.23877741       0.92003418 </v>
   <v>       0.81681221       0.23877741       0.92003418 </v>
   <v>       0.06681221       0.73877741       0.92003418 </v>
   <v>       0.31681221       0.73877741       0.92003418 </v>
   <v>       0.56681221       0.73877741       0.92003418 </v>
   <v>       0.81681221       0.73877741       0.92003418 </v>
   <v>       0.05608512       0.18037250       0.23351950 </v>
   <v>       0.30608512       0.18037250       0.23351950 </v>
   <v>       0.55608512       0.18037250       0.23351950 </v>
   <v>       0.80608512       0.18037250       0.23351950 </v>
   <v>       0.05608512       0.68037250       0.23351950 </v>
   <v>       0.30608512       0.68037250       0.23351950 </v>
   <v>       0.55608512       0.68037250       0.23351950 </v>
   <v>       0.80608512       0.68037250       0.23351950 </v>
   <v>       0.05608512       0.18037250       0.73351950 </v>
   <v>       0.30608512       0.18037250       0.73351950 </v>
   <v>       0.55608512       0.18037250       0.73351950 </v>
   <v>       0.80608512       0.18037250       0.73351950 </v>
   <v>       0.05608512       0.68037250       0.73351950 </v>
   <v>       0.30608512       0.68037250       0.73351950 </v>
   <v>       0.55608512       0.68037250       0.73351950 </v>
   <v>       0.80608512       0.68037250       0.73351950 </v>
   <v>       0.06891487       0.43037250       0.01648043 </v>
   <v>       0.31891487       0.43037250       0.01648043 </v>
   <v>       0.56891487       0.43037250       0.01648043 </v>
   <v>       0.81891487       0.43037250       0.01648043 </v>
   <v>       0.06891487       0.93037250       0.01648043 </v>
   <v>       0.31891487       0.93037250       0.01648043 </v>
   <v>       0.56891487       0.93037250       0.01648043 </v>
   <v>       0.81891487       0.93037250       0.01648043 </v>
   <v>       0.06891487       0.43037250       0.51648043 </v>
   <v>       0.31891487       0.43037250       0.51648043 </v>
   <v>       0.56891487       0.43037250       0.51648043 </v>
   <v>       0.81891487       0.43037250       0.51648043 </v>
   <v>       0.06891487       0.93037250       0.51648043 </v>
   <v>       0.31891487       0.93037250       0.51648043 </v>
   <v>       0.56891487       0.93037250       0.51648043 </v>
   <v>       0.81891487       0.93037250       0.51648043 </v>
   <v>       0.19391487       0.31962750       0.26648043 </v>
   <v>       0.44391487       0.31962750       0.26648043 </v>
   <v>       0.69391487       0.31962750       0.26648043 </v>
   <v>       0.94391487       0.31962750       0.26648043 </v>
   <v>       0.19391487       0.81962750       0.26648043 </v>
   <v>       0.44391487       0.81962750       0.26648043 </v>
   <v>       0.69391487       0.81962750       0.26648043 </v>
   <v>       0.94391487       0.81962750       0.26648043 </v>
   <v>       0.19391487       0.31962750       0.76648043 </v>
   <v>       0.44391487       0.31962750       0.76648043 </v>
   <v>       0.69391487       0.31962750       0.76648043 </v>
   <v>       0.94391487       0.31962750       0.76648043 </v>
   <v>       0.19391487       0.81962750       0.76648043 </v>
   <v>       0.44391487       0.81962750       0.76648043 </v>
   <v>       0.69391487       0.81962750       0.76648043 </v>
   <v>       0.94391487       0.81962750       0.76648043 </v>
   <v>       0.18108512       0.06962750       0.48351950 </v>
   <v>       0.43108512       0.06962750       0.48351950 </v>
   <v>       0.68108512       0.06962750       0.48351950 </v>
   <v>       0.93108512       0.06962750       0.48351950 </v>
   <v>       0.18108512       0.56962750       0.48351950 </v>
   <v>       0.43108512       0.56962750       0.48351950 </v>
   <v>       0.68108512       0.56962750       0.48351950 </v>
   <v>       0.93108512       0.56962750       0.48351950 </v>
   <v>       0.18108512       0.06962750       0.98351950 </v>
   <v>       0.43108512       0.06962750       0.98351950 </v>
   <v>       0.68108512       0.06962750       0.98351950 </v>
   <v>       0.93108512       0.06962750       0.98351950 </v>
   <v>       0.18108512       0.56962750       0.98351950 </v>
   <v>       0.43108512       0.56962750       0.98351950 </v>
   <v>       0.68108512       0.56962750       0.98351950 </v>
   <v>       0.93108512       0.56962750       0.98351950 </v>
  </varray>
 </structure>
 <calculation>
  <scstep>
   <time name="dav"> 1876.89 1881.80</time>
   <time name="total"> 1881.55 1886.48</time>
   <energy>
    <i name="alphaZ">   6580.02941619 </i>
    <i name="ewald">-132336.37011938 </i>
    <i name="hartreedc"> -32544.04815710 </i>
    <i name="XCdc">  -1230.85645506 </i>
    <i name="pawpsdc"> 163058.89803092 </i>
    <i name="pawaedc">-156650.78792849 </i>
    <i name="eentropy">     -0.05446220 </i>
    <i name="bandstr">  18043.22695637 </i>
    <i name="atom"> 149175.97080046 </i>
    <i name="e_fr_energy">  14096.00808171 </i>
    <i name="e_wo_entrp">  14096.06254391 </i>
    <i name="e_0_energy">  14096.03531281 </i>
   </energy>
  </scstep>
  <scstep>
   <time name="dav"> 2013.07 2018.46</time>
   <time name="total"> 2013.08 2018.47</time>
   <energy>
    <i name="e_fr_energy">    199.19862536 </i>
    <i name="e_wo_entrp">    199.21015886 </i>
    <i name="e_0_energy">    199.20439211 </i>
   </energy>
  </scstep>
  <scstep>
   <time name="dav"> 2257.48 2263.25</time>
   <time name="total"> 2257.48 2263.26</time>
   <energy>
    <i name="e_fr_energy">   -655.01457400 </i>
    <i name="e_wo_entrp">   -655.00771862 </i>
    <i name="e_0_energy">   -655.01114631 </i>
   </energy>
  </scstep>
  <scstep>
   <time name="dav"> 2206.14 2211.84</time>
   <time name="total"> 2206.15 2211.85</time>
   <energy>
    <i name="e_fr_energy">   -676.15545518 </i>
    <i name="e_wo_entrp">   -676.14777213 </i>
    <i name="e_0_energy">   -676.15161366 </i>
   </energy>
  </scstep>
  <scstep>
   <time name="dav"> 2302.32 2308.36</time>
   <time name="total"> 2332.02 2338.14</time>
   <energy>
    <i name="e_fr_energy">   -676.43112956 </i>
    <i name="e_wo_entrp">   -676.42344478 </i>
    <i name="e_0_energy">   -676.42728717 </i>
   </energy>
  </scstep>
  <scstep>
   <time name="dav"> 2377.35 2383.48</time>
   <time name="total"> 2414.45 2420.67</time>
   <energy>
    <i name="e_fr_energy">   -676.41961534 </i>
    <i name="e_wo_entrp">   -676.41194849 </i>
    <i name="e_0_energy">   -676.41578191 </i>
   </energy>
  </scstep>
  <scstep>
   <time name="dav"> 2471.52 2477.83</time>
   <time name="total"> 2507.49 2513.94</time>
   <energy>
    <i name="e_fr_energy">   -676.41999052 </i>
    <i name="e_wo_entrp">   -676.41232546 </i>
    <i name="e_0_energy">   -676.41615799 </i>
   </energy>
  </scstep>
  <scstep>
   <time name="dav"> 2423.32 2429.87</time>
   <time name="total"> 2461.05 2467.71</time>
   <energy>
    <i name="e_fr_energy">   -676.42000118 </i>
    <i name="e_wo_entrp">   -676.41233654 </i>
    <i name="e_0_energy">   -676.41616886 </i>
   </energy>
  </scstep>
  <scstep>
   <time name="dav"> 2455.20 2461.80</time>
   <time name="total"> 2492.61 2499.30</time>
   <energy>
    <i name="e_fr_energy">   -676.41999849 </i>
    <i name="e_wo_entrp">   -676.41233421 </i>
    <i name="e_0_energy">   -676.41616635 </i>
   </energy>
  </scstep>
  <scstep>
   <time name="dav"> 2434.85 2441.35</time>
   <time name="total"> 2472.05 2478.69</time>
   <energy>
    <i name="e_fr_energy">   -676.41999756 </i>
    <i name="e_wo_entrp">   -676.41233325 </i>
    <i name="e_0_energy">   -676.41616540 </i>
   </energy>
  </scstep>
  <scstep>
   <time name="dav"> 2439.41 2445.96</time>
   <time name="total"> 2476.43 2483.09</time>
   <energy>
    <i name="e_fr_energy">   -676.41999727 </i>
    <i name="e_wo_entrp">   -676.41233291 </i>
    <i name="e_0_energy">   -676.41616509 </i>
   </energy>
  </scstep>
  <scstep>
   <time name="dav"> 1759.60 1764.29</time>
   <time name="total"> 1796.41 1801.22</time>
   <energy>
    <i name="e_fr_energy">   -676.41999726 </i>
    <i name="e_wo_entrp">   -676.41233288 </i>
    <i name="e_0_energy">   -676.41616507 </i>
   </energy>
  </scstep>
  <scstep>
   <time name="dav"> 1567.95 1572.10</time>
   <time name="total"> 1601.48 1605.72</time>
   <energy>
    <i name="e_fr_energy">   -676.41999729 </i>
    <i name="e_wo_entrp">   -676.41233291 </i>
    <i name="e_0_energy">   -676.41616510 </i>
   </energy>
  </scstep>
  <scstep>
   <time name="dav"> 1512.86 1516.88</time>
   <time name="total"> 1517.94 1521.98</time>
   <energy>
    <i name="alphaZ">   6580.02941619 </i>
    <i name="ewald">-132336.37011938 </i>
    <i name="hartreedc"> -32544.09532293 </i>
    <i name="XCdc">  -1230.85566070 </i>
    <i name="pawpsdc"> 163059.12544008 </i>
    <i name="pawaedc">-156651.05928050 </i>
    <i name="eentropy">     -0.00766438 </i>
    <i name="bandstr">   3270.84239388 </i>
    <i name="atom"> 149175.97080046 </i>
    <i name="e_fr_energy">   -676.41999728 </i>
    <i name="e_wo_entrp">   -676.41233290 </i>
    <i name="e_0_energy">   -676.41616509 </i>
   </energy>
  </scstep>
  <structure>
   <crystal>
    <varray name="basis" >
     <v>      17.67434300       0.00000000       0.02590756 </v>
     <v>       0.00000000      13.77516210       0.00000000 </v>
     <v>      -4.23144168       0.00000000      15.22594286 </v>
    </varray>
    <i name="volume">   3708.52383470 </i>
    <varray name="rec_basis" >
     <v>       0.05655615       0.00000000       0.01571752 </v>
     <v>       0.00000000       0.07259443       0.00000000 </v>
     <v>      -0.00009623       0.00000000       0.06565063 </v>
    </varray>
   </crystal>
   <varray name="positions" >
    <v>       0.08031353       0.12413882       0.07841826 </v>
    <v>       0.33031353       0.12413882       0.07841826 </v>
    <v>       0.58031353       0.12413882       0.07841826 </v>
    <v>       0.83031353       0.12413882       0.07841826 </v>
    <v>       0.08031353       0.62413882       0.07841826 </v>
    <v>       0.33031353       0.62413882       0.07841826 </v>
    <v>       0.58031353       0.62413882       0.07841826 </v>
    <v>       0.83031353       0.62413882       0.07841826 </v>
    <v>       0.08031353       0.12413882       0.57841826 </v>
    <v>       0.33031353       0.12413882       0.57841826 </v>
    <v>       0.58031353       0.12413882       0.57841826 </v>
    <v>       0.83031353       0.12413882       0.57841826 </v>
    <v>       0.08031353       0.62413882       0.57841826 </v>
    <v>       0.33031353       0.62413882       0.57841826 </v>
    <v>       0.58031353       0.62413882       0.57841826 </v>
    <v>       0.83031353       0.62413882       0.57841826 </v>
    <v>       0.04468646       0.37413882       0.17158168 </v>
    <v>       0.29468646       0.37413882       0.17158168 </v>
    <v>       0.54468646       0.37413882       0.17158168 </v>
    <v>       0.79468646       0.37413882       0.17158168 </v>
    <v>       0.04468646       0.87413882       0.17158168 </v>
    <v>       0.29468646       0.87413882       0.17158168 </v>
    <v>       0.54468646       0.87413882       0.17158168 </v>
    <v>       0.79468646       0.87413882       0.17158168 </v>
    <v>       0.04468646       0.37413882       0.67158168 </v>
    <v>       0.29468646       0.37413882       0.67158168 </v>
    <v>       0.54468646       0.37413882       0.67158168 </v>
    <v>       0.79468646       0.37413882       0.67158168 </v>
    <v>       0.04468646       0.87413882       0.67158168 </v>
    <v>       0.29468646       0.87413882       0.67158168 </v>
    <v>       0.54468646       0.87413882       0.67158168 </v>
    <v>       0.79468646       0.87413882       0.67158168 </v>
    <v>       0.16968646       0.37586118       0.42158168 </v>
    <v>       0.41968646       0.37586118       0.42158168 </v>
    <v>       0.66968646       0.37586118       0.42158168 </v>
    <v>       0.91968646       0.37586118       0.42158168 </v>
    <v>       0.16968646       0.87586118       0.42158168 </v>
    <v>       0.41968646       0.87586118       0.42158168 </v>
    <v>       0.66968646       0.87586118       0.42158168 </v>
    <v>       0.91968646       0.87586118       0.42158168 </v>
    <v>       0.16968646       0.37586118       0.92158168 </v>
    <v>       0.41968646       0.37586118       0.92158168 </v>
    <v>       0.66968646       0.37586118       0.92158168 </v>
    <v>       0.91968646       0.37586118       0.92158168 </v>
    <v>       0.16968646       0.87586118       0.92158168 </v>
    <v>       0.41968646       0.87586118       0.92158168 </v>
    <v>       0.66968646       0.87586118       0.92158168 </v>
    <v>       0.91968646       0.87586118       0.92158168 </v>
    <v>       0.20531353       0.12586118       0.32841826 </v>
    <v>       0.45531353       0.12586118       0.32841826 </v>
    <v>       0.70531353       0.12586118       0.32841826 </v>
    <v>       0.95531353       0.12586118       0.32841826 </v>
    <v>       0.20531353       0.62586118       0.32841826 </v>
    <v>       0.45531353       0.62586118       0.32841826 </v>
    <v>       0.70531353       0.62586118       0.32841826 </v>
    <v>       0.95531353       0.62586118       0.32841826 </v>
    <v>       0.20531353       0.12586118       0.82841826 </v>
    <v>       0.45531353       0.12586118       0.82841826 </v>
    <v>       0.70531353       0.12586118       0.82841826 </v>
    <v>       0.95531353       0.12586118       0.82841826 </v>
    <v>       0.20531353       0.62586118       0.82841826 </v>
    <v>       0.45531353       0.62586118       0.82841826 </v>
    <v>       0.70531353       0.62586118       0.82841826 </v>
    <v>       0.95531353       0.62586118       0.82841826 </v>
    <v>       0.19181221       0.01194854       0.17003418 </v>
    <v>       0.44181221       0.01122259       0.17003418 </v>
    <v>       0.69181221       0.01122259       0.17003418 </v>
    <v>       0.94181221       0.01122259       0.17003418 </v>
    <v>       0.19181221       0.51122259       0.17003418 </v>
    <v>       0.44181221       0.51122259       0.17003418 </v>
    <v>       0.69181221       0.51122259       0.17003418 </v>
    <v>       0.94181221       0.51122259       0.17003418 </v>
    <v>       0.19181221       0.01122259       0.67003418 </v>
    <v>       0.44181221       0.01122259       0.67003418 </v>
    <v>       0.69181221       0.01122259       0.67003418 </v>
    <v>       0.94181221       0.01122259       0.67003418 </v>
    <v>       0.19181221       0.51122259       0.67003418 </v>
    <v>       0.44181221       0.51122259       0.67003418 </v>
    <v>       0.69181221       0.51122259       0.67003418 </v>
    <v>       0.94181221       0.51122259       0.67003418 </v>
    <v>       0.18318778       0.26122259       0.07996576 </v>
    <v>       0.43318778       0.26122259       0.07996576 </v>
    <v>       0.68318778       0.26122259       0.07996576 </v>
    <v>       0.93318778       0.26122259       0.07996576 </v>
    <v>       0.18318778       0.76122259       0.07996576 </v>
    <v>       0.43318778       0.76122259       0.07996576 </v>
    <v>       0.68318778       0.76122259       0.07996576 </v>
    <v>       0.93318778       0.76122259       0.07996576 </v>
    <v>       0.18318778       0.26122259       0.57996576 </v>
    <v>       0.43318778       0.26122259       0.57996576 </v>
    <v>       0.68318778       0.26122259       0.57996576 </v>
    <v>       0.93318778       0.26122259       0.57996576 </v>
    <v>       0.18318778       0.76122259       0.57996576 </v>
    <v>       0.43318778       0.76122259       0.57996576 </v>
    <v>       0.68318778       0.76122259       0.57996576 </v>
    <v>       0.93318778       0.76122259       0.57996576 </v>
    <v>       0.05818778       0.48877741       0.32996576 </v>
    <v>       0.30818778       0.48877741       0.32996576 </v>
    <v>       0.55818778       0.48877741       0.32996576 </v>
    <v>       0.80818778       0.48877741       0.32996576 </v>
    <v>       0.05818778       0.98877741       0.32996576 </v>
    <v>       0.30818778       0.98877741       0.32996576 </v>
    <v>       0.55818778       0.98877741       0.32996576 </v>
    <v>       0.80818778       0.98877741       0.32996576 </v>
    <v>       0.05818778       0.48877741       0.82996576 </v>
    <v>       0.30818778       0.48877741       0.82996576 </v>
    <v>       0.55818778       0.48877741       0.82996576 </v>
    <v>       0.80818778       0.48877741       0.82996576 </v>
    <v>       0.05818778       0.98877741       0.82996576 </v>
    <v>       0.30818778       0.98877741       0.82996576 </v>
    <v>       0.55818778       0.98877741       0.82996576 </v>
    <v>       0.80818778       0.98877741       0.82996576 </v>
    <v>       0.06681221       0.23877741       0.42003418 </v>
    <v>       0.31681221       0.23877741       0.42003418 </v>
    <v>       0.56681221       0.23877741       0.42003418 </v>
    <v>       0.81681221       0.23877741       0.42003418 </v>
    <v>       0.06681221       0.73877741       0.42003418 </v>
    <v>       0.31681221       0.73877741       0.42003418 </v>
    <v>       0.56681221       0.73877741       0.42003418 </v>
    <v>       0.81681221       0.73877741       0.42003418 </v>
    <v>       0.06681221       0.23877741       0.92003418 </v>
    <v>       0.31681221       0.23877741       0.92003418 </v>
    <v>       0.56681221       0.23877741       0.92003418 </v>
    <v>       0.81681221       0.23877741       0.92003418 </v>
    <v>       0.06681221       0.73877741       0.92003418 </v>
    <v>       0.31681221       0.73877741       0.92003418 </v>
    <v>       0.56681221       0.73877741       0.92003418 </v>
    <v>       0.81681221       0.73877741       0.92003418 </v>
    <v>       0.05608512       0.18037250       0.23351950 </v>
    <v>       0.30608512       0.18037250       0.23351950 </v>
    <v>       0.55608512       0.18037250       0.23351950 </v>
    <v>       0.80608512       0.18037250       0.23351950 </v>
    <v>       0.05608512       0.68037250       0.23351950 </v>
    <v>       0.30608512       0.68037250       0.23351950 </v>
    <v>       0.55608512       0.68037250       0.23351950 </v>
    <v>       0.80608512       0.68037250       0.23351950 </v>
    <v>       0.05608512       0.18037250       0.73351950 </v>
    <v>       0.30608512       0.18037250       0.73351950 </v>
    <v>       0.55608512       0.18037250       0.73351950 </v>
    <v>       0.80608512       0.18037250       0.73351950 </v>
    <v>       0.05608512       0.68037250       0.73351950 </v>
    <v>       0.30608512       0.68037250       0.73351950 </v>
    <v>       0.55608512       0.68037250       0.73351950 </v>
    <v>       0.80608512       0.68037250       0.73351950 </v>
    <v>       0.06891487       0.43037250       0.01648043 </v>
    <v>       0.31891487       0.43037250       0.01648043 </v>
    <v>       0.56891487       0.43037250       0.01648043 </v>
    <v>       0.81891487       0.43037250       0.01648043 </v>
    <v>       0.06891487       0.93037250       0.01648043 </v>
    <v>       0.31891487       0.93037250       0.01648043 </v>
    <v>       0.56891487       0.93037250       0.01648043 </v>
    <v>       0.81891487       0.93037250       0.01648043 </v>
    <v>       0.06891487       0.43037250       0.51648043 </v>
    <v>       0.31891487       0.43037250       0.51648043 </v>
    <v>       0.56891487       0.43037250       0.51648043 </v>
    <v>       0.81891487       0.43037250       0.51648043 </v>
    <v>       0.06891487       0.93037250       0.51648043 </v>
    <v>       0.31891487       0.93037250       0.51648043 </v>
    <v>       0.56891487       0.93037250       0.51648043 </v>
    <v>       0.81891487       0.93037250       0.51648043 </v>
    <v>       0.19391487       0.31962750       0.26648043 </v>
    <v>       0.44391487       0.31962750       0.26648043 </v>
    <v>       0.69391487       0.31962750       0.26648043 </v>
    <v>       0.94391487       0.31962750       0.26648043 </v>
    <v>       0.19391487       0.81962750       0.26648043 </v>
    <v>       0.44391487       0.81962750       0.26648043 </v>
    <v>       0.69391487       0.81962750       0.26648043 </v>
    <v>       0.94391487       0.81962750       0.26648043 </v>
    <v>       0.19391487       0.31962750       0.76648043 </v>
    <v>       0.44391487       0.31962750       0.76648043 </v>
    <v>       0.69391487       0.31962750       0.76648043 </v>
    <v>       0.94391487       0.31962750       0.76648043 </v>
    <v>       0.19391487       0.81962750       0.76648043 </v>
    <v>       0.44391487       0.81962750       0.76648043 </v>
    <v>       0.69391487       0.81962750       0.76648043 </v>
    <v>       0.94391487       0.81962750       0.76648043 </v>
    <v>       0.18108512       0.06962750       0.48351950 </v>
    <v>       0.43108512       0.06962750       0.48351950 </v>
    <v>       0.68108512       0.06962750       0.48351950 </v>
    <v>       0.93108512       0.06962750       0.48351950 </v>
    <v>       0.18108512       0.56962750       0.48351950 </v>
    <v>       0.43108512       0.56962750       0.48351950 </v>
    <v>       0.68108512       0.56962750       0.48351950 </v>
    <v>       0.93108512       0.56962750       0.48351950 </v>
    <v>       0.18108512       0.06962750       0.98351950 </v>
    <v>       0.43108512       0.06962750       0.98351950 </v>
    <v>       0.68108512       0.06962750       0.98351950 </v>
    <v>       0.93108512       0.06962750       0.98351950 </v>
    <v>       0.18108512       0.56962750       0.98351950 </v>
    <v>       0.43108512       0.56962750       0.98351950 </v>
    <v>       0.68108512       0.56962750       0.98351950 </v>
    <v>       0.93108512       0.56962750       0.98351950 </v>
   </varray>
  </structure>
  <varray name="forces" >
   <v>      -0.01566961       0.01207801      -0.01318396 </v>
   <v>      -0.00288929       0.00026424      -0.00273074 </v>
   <v>      -0.00356067       0.00043163      -0.00248855 </v>
   <v>      -0.00309906       0.00039267      -0.00242689 </v>
   <v>      -0.00355665       0.00016138      -0.00257530 </v>
   <v>      -0.00366458      -0.00002262      -0.00260670 </v>
   <v>      -0.00355843       0.00032506      -0.00245178 </v>
   <v>      -0.00357673       0.00034585      -0.00245706 </v>
   <v>      -0.00362344       0.00039534      -0.00242920 </v>
   <v>      -0.00383851       0.00051037      -0.00265805 </v>
   <v>      -0.00360023       0.00038803      -0.00242374 </v>
   <v>      -0.00356559       0.00036618      -0.00231595 </v>
   <v>      -0.00355148       0.00033030      -0.00248139 </v>
   <v>      -0.00360064       0.00034916      -0.00238814 </v>
   <v>      -0.00359544       0.00036370      -0.00240579 </v>
   <v>      -0.00358840       0.00036700      -0.00244011 </v>
   <v>       0.00376605       0.00009121       0.00246359 </v>
   <v>       0.00356145       0.00034177       0.00257690 </v>
   <v>       0.00362864       0.00035983       0.00245173 </v>
   <v>       0.00364064       0.00031876       0.00238927 </v>
   <v>       0.00540975       0.00034229       0.00209446 </v>
   <v>      -0.01246023       0.01543154       0.00471421 </v>
   <v>       0.00410674       0.00043245       0.00248080 </v>
   <v>       0.00358121       0.00042735       0.00243860 </v>
   <v>       0.00360286       0.00034438       0.00242836 </v>
   <v>       0.00358879       0.00034244       0.00245077 </v>
   <v>       0.00359034       0.00036292       0.00241844 </v>
   <v>       0.00361041       0.00035412       0.00243934 </v>
   <v>       0.00366263       0.00036961       0.00242120 </v>
   <v>       0.00357394       0.00042212       0.00244577 </v>
   <v>       0.00361523       0.00038327       0.00250507 </v>
   <v>       0.00361418       0.00038004       0.00239433 </v>
   <v>       0.00361757      -0.00070948       0.00244276 </v>
   <v>       0.00358818      -0.00038577       0.00241469 </v>
   <v>       0.00360378      -0.00039893       0.00242036 </v>
   <v>       0.00359099      -0.00043694       0.00244722 </v>
   <v>       0.00384411      -0.00018651       0.00203579 </v>
   <v>       0.00359348      -0.00030852       0.00274567 </v>
   <v>       0.00358882      -0.00035176       0.00247798 </v>
   <v>       0.00362695      -0.00037091       0.00241609 </v>
   <v>       0.00356775      -0.00049933       0.00246355 </v>
   <v>       0.00355840      -0.00048632       0.00244388 </v>
   <v>       0.00360679      -0.00038652       0.00241074 </v>
   <v>       0.00364308      -0.00043043       0.00246270 </v>
   <v>       0.00313688      -0.00007144       0.00300177 </v>
   <v>       0.00357253      -0.00035749       0.00244579 </v>
   <v>       0.00358053      -0.00036397       0.00243500 </v>
   <v>       0.00335895      -0.00036078       0.00230932 </v>
   <v>      -0.00453381       0.00188922       0.00187082 </v>
   <v>      -0.00358942      -0.00029503      -0.00233472 </v>
   <v>      -0.00359149      -0.00036178      -0.00240601 </v>
   <v>      -0.00351118      -0.00035316      -0.00239874 </v>
   <v>      -0.00376868      -0.00082818      -0.00222027 </v>
   <v>      -0.00341932      -0.00062427      -0.00230915 </v>
   <v>      -0.00359496      -0.00037496      -0.00243039 </v>
   <v>      -0.00371953      -0.00052580      -0.00231287 </v>
   <v>      -0.00367713      -0.00041188      -0.00239902 </v>
   <v>      -0.00361442      -0.00038356      -0.00251208 </v>
   <v>      -0.00359501      -0.00037382      -0.00241343 </v>
   <v>      -0.00355949      -0.00036929      -0.00190914 </v>
   <v>      -0.00364262      -0.00037629      -0.00243498 </v>
   <v>      -0.00361854      -0.00039961      -0.00241529 </v>
   <v>      -0.00360155      -0.00038397      -0.00243504 </v>
   <v>      -0.00359977      -0.00039641      -0.00246061 </v>
   <v>       0.02402139      -0.03524601       0.00893704 </v>
   <v>       0.00030088       0.00025040      -0.00069266 </v>
   <v>       0.00031325       0.00036165      -0.00074289 </v>
   <v>       0.00041891       0.00025137      -0.00076127 </v>
   <v>       0.00033273       0.00062080      -0.00074384 </v>
   <v>       0.00035911       0.00056090      -0.00077228 </v>
   <v>       0.00036014       0.00048183      -0.00075807 </v>
   <v>       0.00033167       0.00056106      -0.00069960 </v>
   <v>       0.00035620       0.00044840      -0.00068343 </v>
   <v>       0.00040186       0.00043028      -0.00069689 </v>
   <v>       0.00036949       0.00043547      -0.00075448 </v>
   <v>       0.00035822       0.00043048      -0.00077919 </v>
   <v>       0.00037954       0.00046508      -0.00075784 </v>
   <v>       0.00037170       0.00046733      -0.00076374 </v>
   <v>       0.00036072       0.00046379      -0.00075655 </v>
   <v>       0.00036576       0.00046714      -0.00075591 </v>
   <v>      -0.00005387       0.00114659       0.00058798 </v>
[...]
       <r>     2.7508   637.6501  1186.2373 </r>
       <r>     2.8226   696.4749  1236.2100 </r>
       <r>     2.8943   561.9497  1276.5303 </r>
       <r>     2.9661   470.0036  1310.2535 </r>
       <r>     3.0378   462.3151  1343.4250 </r>
       <r>     3.1096   453.8245  1375.9872 </r>
       <r>     3.1813   427.3922  1406.6530 </r>
       <r>     3.2531   361.8935  1432.6191 </r>
       <r>     3.3248   229.8495  1449.1110 </r>
       <r>     3.3966   186.0121  1462.4575 </r>
       <r>     3.4683   185.6630  1475.7790 </r>
       <r>     3.5401   190.3975  1489.4402 </r>
       <r>     3.6118   204.9309  1504.1442 </r>
       <r>     3.6836   180.3382  1517.0836 </r>
       <r>     3.7553   121.9408  1525.8329 </r>
       <r>     3.8271    94.4971  1532.6132 </r>
       <r>     3.8988   100.6385  1539.8341 </r>
       <r>     3.9706   120.9363  1548.5113 </r>
       <r>     4.0423    97.9519  1555.5395 </r>
       <r>     4.1141   101.6536  1562.8332 </r>
       <r>     4.1858   156.5479  1574.0656 </r>
       <r>     4.2576    97.3418  1581.0500 </r>
       <r>     4.3293    87.2962  1587.3136 </r>
       <r>     4.4011    93.4337  1594.0175 </r>
       <r>     4.4729    91.9629  1600.6159 </r>
       <r>     4.5446   149.1074  1611.3145 </r>
       <r>     4.6164   116.5034  1619.6737 </r>
       <r>     4.6881    92.7515  1626.3287 </r>
       <r>     4.7599   112.7634  1634.4196 </r>
       <r>     4.8316    85.6165  1640.5626 </r>
       <r>     4.9034   102.0011  1647.8813 </r>
       <r>     4.9751   170.0397  1660.0818 </r>
       <r>     5.0469   130.1737  1669.4219 </r>
       <r>     5.1186    69.1564  1674.3839 </r>
       <r>     5.1904    93.8635  1681.1187 </r>
       <r>     5.2621    73.8991  1686.4210 </r>
       <r>     5.3339   123.7505  1695.3002 </r>
       <r>     5.4056   143.9499  1705.6287 </r>
       <r>     5.4774   119.0824  1714.1730 </r>
       <r>     5.5491    72.4578  1719.3719 </r>
       <r>     5.6209    93.4721  1726.0786 </r>
       <r>     5.6926   141.3797  1736.2227 </r>
       <r>     5.7644   155.8962  1747.4084 </r>
       <r>     5.8361   106.6510  1755.0607 </r>
       <r>     5.9079   120.3939  1763.6990 </r>
       <r>     5.9796   116.6290  1772.0673 </r>
       <r>     6.0514    85.7836  1778.2223 </r>
       <r>     6.1231    62.2338  1782.6876 </r>
       <r>     6.1949    42.3424  1785.7257 </r>
       <r>     6.2666    37.3303  1788.4042 </r>
       <r>     6.3384    30.4247  1790.5872 </r>
       <r>     6.4101    13.6513  1791.5667 </r>
       <r>     6.4819     7.5019  1792.1050 </r>
       <r>     6.5536     2.4283  1792.2792 </r>
       <r>     6.6254     4.5199  1792.6035 </r>
       <r>     6.6971     2.8300  1792.8066 </r>
       <r>     6.7689     2.3750  1792.9770 </r>
       <r>     6.8406     1.6787  1793.0974 </r>
       <r>     6.9124    11.3167  1793.9094 </r>
       <r>     6.9841    15.0495  1794.9892 </r>
       <r>     7.0559    10.4039  1795.7357 </r>
       <r>     7.1276    10.5243  1796.4908 </r>
       <r>     7.1994    25.5288  1798.3226 </r>
       <r>     7.2711    31.0666  1800.5516 </r>
       <r>     7.3429    18.5201  1801.8804 </r>
       <r>     7.4146    32.0018  1804.1766 </r>
       <r>     7.4864    35.1481  1806.6985 </r>
       <r>     7.5581    37.2614  1809.3720 </r>
       <r>     7.6299    57.3368  1813.4860 </r>
       <r>     7.7016    67.3352  1818.3174 </r>
       <r>     7.7734    72.7113  1823.5345 </r>
       <r>     7.8451    73.4334  1828.8034 </r>
       <r>     7.9169    62.3165  1833.2746 </r>
       <r>     7.9886    57.9471  1837.4324 </r>
       <r>     8.0604    77.7673  1843.0122 </r>
       <r>     8.1321    81.4090  1848.8534 </r>
       <r>     8.2039    83.2131  1854.8240 </r>
       <r>     8.2756    73.3406  1860.0863 </r>
       <r>     8.3474    66.4039  1864.8508 </r>
       <r>     8.4191    74.0206  1870.1618 </r>
       <r>     8.4909    88.8590  1876.5375 </r>
       <r>     8.5626    75.4029  1881.9477 </r>
       <r>     8.6344    57.4005  1886.0663 </r>
       <r>     8.7061    81.2386  1891.8952 </r>
       <r>     8.7779    84.3138  1897.9448 </r>
       <r>     8.8497    57.6715  1902.0828 </r>
       <r>     8.9214    46.1361  1905.3931 </r>
       <r>     8.9932    40.1847  1908.2764 </r>
       <r>     9.0649    52.9034  1912.0722 </r>
       <r>     9.1367    85.6853  1918.2202 </r>
       <r>     9.2084    64.1872  1922.8257 </r>
       <r>     9.2802    49.2447  1926.3591 </r>
       <r>     9.3519    56.9356  1930.4442 </r>
       <r>     9.4237    67.8339  1935.3114 </r>
       <r>     9.4954    63.0882  1939.8380 </r>
       <r>     9.5672    40.8441  1942.7686 </r>
       <r>     9.6389    71.1019  1947.8702 </r>
       <r>     9.7107   103.9243  1955.3269 </r>
       <r>     9.7824   107.4387  1963.0357 </r>
       <r>     9.8542    88.0943  1969.3565 </r>
       <r>     9.9259    76.4601  1974.8426 </r>
       <r>     9.9977    57.7057  1978.9830 </r>
       <r>    10.0694    84.1125  1985.0182 </r>
       <r>    10.1412    88.1101  1991.3402 </r>
       <r>    10.2129   100.1811  1998.5282 </r>
       <r>    10.2847   108.7480  2006.3310 </r>
       <r>    10.3564   113.4300  2014.4697 </r>
       <r>    10.4282   110.1816  2022.3753 </r>
       <r>    10.4999    93.1846  2029.0614 </r>
       <r>    10.5717    73.5707  2034.3401 </r>
       <r>    10.6434    75.9494  2039.7896 </r>
       <r>    10.7152    69.4970  2044.7760 </r>
       <r>    10.7869    67.9948  2049.6547 </r>
       <r>    10.8587    72.3848  2054.8484 </r>
       <r>    10.9304    72.0484  2060.0179 </r>
       <r>    11.0022    55.4239  2063.9946 </r>
       <r>    11.0739    93.3696  2070.6940 </r>
       <r>    11.1457   104.9296  2078.2228 </r>
       <r>    11.2174    80.4536  2083.9954 </r>
       <r>    11.2892    95.0970  2090.8187 </r>
       <r>    11.3609    81.5439  2096.6695 </r>
       <r>    11.4327   106.7961  2104.3322 </r>
       <r>    11.5044   129.7587  2113.6425 </r>
       <r>    11.5762   118.3650  2122.1353 </r>
       <r>    11.6479   105.3039  2129.6909 </r>
       <r>    11.7197    62.7136  2134.1907 </r>
       <r>    11.7914    90.2423  2140.6657 </r>
       <r>    11.8632    50.3557  2144.2787 </r>
       <r>    11.9349    27.0171  2146.2172 </r>
       <r>    12.0067    13.8639  2147.2120 </r>
       <r>    12.0784    19.1964  2148.5893 </r>
       <r>    12.1502    13.3162  2149.5448 </r>
       <r>    12.2219     5.8559  2149.9649 </r>
       <r>    12.2937     0.4870  2149.9999 </r>
       <r>    12.3654     0.0017  2150.0000 </r>
       <r>    12.4372     0.0000  2150.0000 </r>
       <r>    12.5089     0.0000  2150.0000 </r>
       <r>    12.5807     0.0000  2150.0000 </r>
       <r>    12.6524     0.0000  2150.0000 </r>
       <r>    12.7242     0.0000  2150.0000 </r>
       <r>    12.7959     0.0000  2150.0000 </r>
       <r>    12.8677     0.0000  2150.0000 </r>
       <r>    12.9394     0.0000  2150.0000 </r>
       <r>    13.0112     0.0000  2150.0000 </r>
       <r>    13.0829     0.0000  2150.0000 </r>
       <r>    13.1547     0.0000  2150.0000 </r>
      </set>
     </set>
    </array>
   </total>
  </dos>
 </calculation>
 <structure name="finalpos" >
  <crystal>
   <varray name="basis" >
    <v>      17.67434300       0.00000000       0.02590756 </v>
    <v>       0.00000000      13.77516210       0.00000000 </v>
    <v>      -4.23144168       0.00000000      15.22594286 </v>
   </varray>
   <i name="volume">   3708.52383470 </i>
   <varray name="rec_basis" >
    <v>       0.05655615       0.00000000       0.01571752 </v>
    <v>       0.00000000       0.07259443       0.00000000 </v>
    <v>      -0.00009623       0.00000000       0.06565063 </v>
   </varray>
  </crystal>
  <varray name="positions" >
   <v>       0.08031353       0.12413882       0.07841826 </v>
   <v>       0.33031353       0.12413882       0.07841826 </v>
   <v>       0.58031353       0.12413882       0.07841826 </v>
   <v>       0.83031353       0.12413882       0.07841826 </v>
   <v>       0.08031353       0.62413882       0.07841826 </v>
   <v>       0.33031353       0.62413882       0.07841826 </v>
   <v>       0.58031353       0.62413882       0.07841826 </v>
   <v>       0.83031353       0.62413882       0.07841826 </v>
   <v>       0.08031353       0.12413882       0.57841826 </v>
   <v>       0.33031353       0.12413882       0.57841826 </v>
   <v>       0.58031353       0.12413882       0.57841826 </v>
   <v>       0.83031353       0.12413882       0.57841826 </v>
   <v>       0.08031353       0.62413882       0.57841826 </v>
   <v>       0.33031353       0.62413882       0.57841826 </v>
   <v>       0.58031353       0.62413882       0.57841826 </v>
   <v>       0.83031353       0.62413882       0.57841826 </v>
   <v>       0.04468646       0.37413882       0.17158168 </v>
   <v>       0.29468646       0.37413882       0.17158168 </v>
   <v>       0.54468646       0.37413882       0.17158168 </v>
   <v>       0.79468646       0.37413882       0.17158168 </v>
   <v>       0.04468646       0.87413882       0.17158168 </v>
   <v>       0.29468646       0.87413882       0.17158168 </v>
   <v>       0.54468646       0.87413882       0.17158168 </v>
   <v>       0.79468646       0.87413882       0.17158168 </v>
   <v>       0.04468646       0.37413882       0.67158168 </v>
   <v>       0.29468646       0.37413882       0.67158168 </v>
   <v>       0.54468646       0.37413882       0.67158168 </v>
   <v>       0.79468646       0.37413882       0.67158168 </v>
   <v>       0.04468646       0.87413882       0.67158168 </v>
   <v>       0.29468646       0.87413882       0.67158168 </v>
   <v>       0.54468646       0.87413882       0.67158168 </v>
   <v>       0.79468646       0.87413882       0.67158168 </v>
   <v>       0.16968646       0.37586118       0.42158168 </v>
   <v>       0.41968646       0.37586118       0.42158168 </v>
   <v>       0.66968646       0.37586118       0.42158168 </v>
   <v>       0.91968646       0.37586118       0.42158168 </v>
   <v>       0.16968646       0.87586118       0.42158168 </v>
   <v>       0.41968646       0.87586118       0.42158168 </v>
   <v>       0.66968646       0.87586118       0.42158168 </v>
   <v>       0.91968646       0.87586118       0.42158168 </v>
   <v>       0.16968646       0.37586118       0.92158168 </v>
   <v>       0.41968646       0.37586118       0.92158168 </v>
   <v>       0.66968646       0.37586118       0.92158168 </v>
   <v>       0.91968646       0.37586118       0.92158168 </v>
   <v>       0.16968646       0.87586118       0.92158168 </v>
   <v>       0.41968646       0.87586118       0.92158168 </v>
   <v>       0.66968646       0.87586118       0.92158168 </v>
   <v>       0.91968646       0.87586118       0.92158168 </v>
   <v>       0.20531353       0.12586118       0.32841826 </v>
   <v>       0.45531353       0.12586118       0.32841826 </v>
   <v>       0.70531353       0.12586118       0.32841826 </v>
   <v>       0.95531353       0.12586118       0.32841826 </v>
   <v>       0.20531353       0.62586118       0.32841826 </v>
   <v>       0.45531353       0.62586118       0.32841826 </v>
   <v>       0.70531353       0.62586118       0.32841826 </v>
   <v>       0.95531353       0.62586118       0.32841826 </v>
   <v>       0.20531353       0.12586118       0.82841826 </v>
   <v>       0.45531353       0.12586118       0.82841826 </v>
   <v>       0.70531353       0.12586118       0.82841826 </v>
   <v>       0.95531353       0.12586118       0.82841826 </v>
   <v>       0.20531353       0.62586118       0.82841826 </v>
   <v>       0.45531353       0.62586118       0.82841826 </v>
   <v>       0.70531353       0.62586118       0.82841826 </v>
   <v>       0.95531353       0.62586118       0.82841826 </v>
   <v>       0.19181221       0.01194854       0.17003418 </v>
   <v>       0.44181221       0.01122259       0.17003418 </v>
   <v>       0.69181221       0.01122259       0.17003418 </v>
   <v>       0.94181221       0.01122259       0.17003418 </v>
   <v>       0.19181221       0.51122259       0.17003418 </v>
   <v>       0.44181221       0.51122259       0.17003418 </v>
   <v>       0.69181221       0.51122259       0.17003418 </v>
   <v>       0.94181221       0.51122259       0.17003418 </v>
   <v>       0.19181221       0.01122259       0.67003418 </v>
   <v>       0.44181221       0.01122259       0.67003418 </v>
   <v>       0.69181221       0.01122259       0.67003418 </v>
   <v>       0.94181221       0.01122259       0.67003418 </v>
   <v>       0.19181221       0.51122259       0.67003418 </v>
   <v>       0.44181221       0.51122259       0.67003418 </v>
   <v>       0.69181221       0.51122259       0.67003418 </v>
   <v>       0.94181221       0.51122259       0.67003418 </v>
   <v>       0.18318778       0.26122259       0.07996576 </v>
   <v>       0.43318778       0.26122259       0.07996576 </v>
   <v>       0.68318778       0.26122259       0.07996576 </v>
   <v>       0.93318778       0.26122259       0.07996576 </v>
   <v>       0.18318778       0.76122259       0.07996576 </v>
   <v>       0.43318778       0.76122259       0.07996576 </v>
   <v>       0.68318778       0.76122259       0.07996576 </v>
   <v>       0.93318778       0.76122259       0.07996576 </v>
   <v>       0.18318778       0.26122259       0.57996576 </v>
   <v>       0.43318778       0.26122259       0.57996576 </v>
   <v>       0.68318778       0.26122259       0.57996576 </v>
   <v>       0.93318778       0.26122259       0.57996576 </v>
   <v>       0.18318778       0.76122259       0.57996576 </v>
   <v>       0.43318778       0.76122259       0.57996576 </v>
   <v>       0.68318778       0.76122259       0.57996576 </v>
   <v>       0.93318778       0.76122259       0.57996576 </v>
   <v>       0.05818778       0.48877741       0.32996576 </v>
   <v>       0.30818778       0.48877741       0.32996576 </v>
   <v>       0.55818778       0.48877741       0.32996576 </v>
   <v>       0.80818778       0.48877741       0.32996576 </v>
   <v>       0.05818778       0.98877741       0.32996576 </v>
   <v>       0.30818778       0.98877741       0.32996576 </v>
   <v>       0.55818778       0.98877741       0.32996576 </v>
   <v>       0.80818778       0.98877741       0.32996576 </v>
   <v>       0.05818778       0.48877741       0.82996576 </v>
   <v>       0.30818778       0.48877741       0.82996576 </v>
   <v>       0.55818778       0.48877741       0.82996576 </v>
   <v>       0.80818778       0.48877741       0.82996576 </v>
   <v>       0.05818778       0.98877741       0.82996576 </v>
   <v>       0.30818778       0.98877741       0.82996576 </v>
   <v>       0.55818778       0.98877741       0.82996576 </v>
   <v>       0.80818778       0.98877741       0.82996576 </v>
   <v>       0.06681221       0.23877741       0.42003418 </v>
   <v>       0.31681221       0.23877741       0.42003418 </v>
   <v>       0.56681221       0.23877741       0.42003418 </v>
   <v>       0.81681221       0.23877741       0.42003418 </v>
   <v>       0.06681221       0.73877741       0.42003418 </v>
   <v>       0.31681221       0.73877741       0.42003418 </v>
   <v>       0.56681221       0.73877741       0.42003418 </v>
   <v>       0.81681221       0.73877741       0.42003418 </v>
   <v>       0.06681221       0.23877741       0.92003418 </v>
   <v>       0.31681221       0.23877741       0.92003418 </v>
   <v>       0.56681221       0.23877741       0.92003418 </v>
   <v>       0.81681221       0.23877741       0.92003418 </v>
   <v>       0.06681221       0.73877741       0.92003418 </v>
   <v>       0.31681221       0.73877741       0.92003418 </v>
   <v>       0.56681221       0.73877741       0.92003418 </v>
   <v>       0.81681221       0.73877741       0.92003418 </v>
   <v>       0.05608512       0.18037250       0.23351950 </v>
   <v>       0.30608512       0.18037250       0.23351950 </v>
   <v>       0.55608512       0.18037250       0.23351950 </v>
   <v>       0.80608512       0.18037250       0.23351950 </v>
   <v>       0.05608512       0.68037250       0.23351950 </v>
   <v>       0.30608512       0.68037250       0.23351950 </v>
   <v>       0.55608512       0.68037250       0.23351950 </v>
   <v>       0.80608512       0.68037250       0.23351950 </v>
   <v>       0.05608512       0.18037250       0.73351950 </v>
   <v>       0.30608512       0.18037250       0.73351950 </v>
   <v>       0.55608512       0.18037250       0.73351950 </v>
   <v>       0.80608512       0.18037250       0.73351950 </v>
   <v>       0.05608512       0.68037250       0.73351950 </v>
   <v>       0.30608512       0.68037250       0.73351950 </v>
   <v>       0.55608512       0.68037250       0.73351950 </v>
   <v>       0.80608512       0.68037250       0.73351950 </v>
   <v>       0.06891487       0.43037250       0.01648043 </v>
   <v>       0.31891487       0.43037250       0.01648043 </v>
   <v>       0.56891487       0.43037250       0.01648043 </v>
   <v>       0.81891487       0.43037250       0.01648043 </v>
   <v>       0.06891487       0.93037250       0.01648043 </v>
   <v>       0.31891487       0.93037250       0.01648043 </v>
   <v>       0.56891487       0.93037250       0.01648043 </v>
   <v>       0.81891487       0.93037250       0.01648043 </v>
   <v>       0.06891487       0.43037250       0.51648043 </v>
   <v>       0.31891487       0.43037250       0.51648043 </v>
   <v>       0.56891487       0.43037250       0.51648043 </v>
   <v>       0.81891487       0.43037250       0.51648043 </v>
   <v>       0.06891487       0.93037250       0.51648043 </v>
   <v>       0.31891487       0.93037250       0.51648043 </v>
   <v>       0.56891487       0.93037250       0.51648043 </v>
   <v>       0.81891487       0.93037250       0.51648043 </v>
   <v>       0.19391487       0.31962750       0.26648043 </v>
   <v>       0.44391487       0.31962750       0.26648043 </v>
   <v>       0.69391487       0.31962750       0.26648043 </v>
   <v>       0.94391487       0.31962750       0.26648043 </v>
   <v>       0.19391487       0.81962750       0.26648043 </v>
   <v>       0.44391487       0.81962750       0.26648043 </v>
   <v>       0.69391487       0.81962750       0.26648043 </v>
   <v>       0.94391487       0.81962750       0.26648043 </v>
   <v>       0.19391487       0.31962750       0.76648043 </v>
   <v>       0.44391487       0.31962750       0.76648043 </v>
   <v>       0.69391487       0.31962750       0.76648043 </v>
   <v>       0.94391487       0.31962750       0.76648043 </v>
   <v>       0.19391487       0.81962750       0.76648043 </v>
   <v>       0.44391487       0.81962750       0.76648043 </v>
   <v>       0.69391487       0.81962750       0.76648043 </v>
   <v>       0.94391487       0.81962750       0.76648043 </v>
   <v>       0.18108512       0.06962750       0.48351950 </v>
   <v>       0.43108512       0.06962750       0.48351950 </v>
   <v>       0.68108512       0.06962750       0.48351950 </v>
   <v>       0.93108512       0.06962750       0.48351950 </v>
   <v>       0.18108512       0.56962750       0.48351950 </v>
   <v>       0.43108512       0.56962750       0.48351950 </v>
   <v>       0.68108512       0.56962750       0.48351950 </v>
   <v>       0.93108512       0.56962750       0.48351950 </v>
   <v>       0.18108512       0.06962750       0.98351950 </v>
   <v>       0.43108512       0.06962750       0.98351950 </v>
   <v>       0.68108512       0.06962750       0.98351950 </v>
   <v>       0.93108512       0.06962750       0.98351950 </v>
   <v>       0.18108512       0.56962750       0.98351950 </v>
   <v>       0.43108512       0.56962750       0.98351950 </v>
   <v>       0.68108512       0.56962750       0.98351950 </v>
   <v>       0.93108512       0.56962750       0.98351950 </v>
  </varray>
 </structure>
</modeling>
