 144 144   0   0
  0.1948916E+02  0.1401040E-08  0.1376691E-08  0.1455019E-08  0.5000000E-15
  1.000000000000000E-004
  CAR 
 unknown system                          
     13.05462895     -8.44095105  301      6.26439992      1.00000000
     -8.441  0.0000E+00  0.0000E+00
     -8.369  0.0000E+00  0.0000E+00
     -8.298  0.0000E+00  0.0000E+00
     -8.226  0.0000E+00  0.0000E+00
     -8.154  0.0000E+00  0.0000E+00
     -8.083  0.0000E+00  0.0000E+00
     -8.011  0.0000E+00  0.0000E+00
     -7.939  0.0000E+00  0.0000E+00
     -7.868  0.0000E+00  0.0000E+00
     -7.796  0.0000E+00  0.0000E+00
     -7.724  0.2987E-12  0.2140E-13
     -7.653  0.1596E-06  0.1143E-07
     -7.581  0.1592E-02  0.1141E-03
     -7.509  0.3521E+00  0.2534E-01
     -7.438  0.4314E+01  0.3344E+00
     -7.366  0.1910E+02  0.1703E+01
     -7.295  0.3786E+02  0.4416E+01
     -7.223  0.3949E+02  0.7245E+01
     -7.151  0.6431E+02  0.1185E+02
     -7.080  0.1004E+03  0.1905E+02
     -7.008  0.1263E+03  0.2810E+02
     -6.936  0.2083E+03  0.4302E+02
     -6.865  0.2226E+03  0.5897E+02
     -6.793  0.2574E+03  0.7742E+02
     -6.721  0.2074E+03  0.9228E+02
     -6.650  0.4968E+02  0.9584E+02
     -6.578  0.2241E+01  0.9600E+02
     -6.506  0.8125E-02  0.9600E+02
     -6.435  0.1033E-05  0.9600E+02
     -6.363  0.3089E-11  0.9600E+02
     -6.291  0.0000E+00  0.9600E+02
     -6.220  0.0000E+00  0.9600E+02
     -6.148  0.0000E+00  0.9600E+02
     -6.076  0.0000E+00  0.9600E+02
     -6.005  0.0000E+00  0.9600E+02
     -5.933  0.0000E+00  0.9600E+02
     -5.861  0.0000E+00  0.9600E+02
     -5.790  0.0000E+00  0.9600E+02
     -5.718  0.0000E+00  0.9600E+02
     -5.647  0.0000E+00  0.9600E+02
     -5.575  0.0000E+00  0.9600E+02
     -5.503  0.0000E+00  0.9600E+02
     -5.432  0.0000E+00  0.9600E+02
     -5.360  0.0000E+00  0.9600E+02
     -5.288  0.0000E+00  0.9600E+02
     -5.217  0.0000E+00  0.9600E+02
     -5.145  0.0000E+00  0.9600E+02
     -5.073  0.0000E+00  0.9600E+02
     -5.002  0.0000E+00  0.9600E+02
     -4.930  0.0000E+00  0.9600E+02
     -4.858  0.0000E+00  0.9600E+02
     -4.787  0.0000E+00  0.9600E+02
     -4.715  0.0000E+00  0.9600E+02
     -4.643  0.0000E+00  0.9600E+02
     -4.572  0.0000E+00  0.9600E+02
     -4.500  0.0000E+00  0.9600E+02
     -4.428  0.0000E+00  0.9600E+02
     -4.357  0.0000E+00  0.9600E+02
     -4.285  0.0000E+00  0.9600E+02
     -4.213  0.0000E+00  0.9600E+02
     -4.142  0.0000E+00  0.9600E+02
     -4.070  0.0000E+00  0.9600E+02
     -3.999  0.0000E+00  0.9600E+02
     -3.927  0.0000E+00  0.9600E+02
     -3.855  0.0000E+00  0.9600E+02
     -3.784  0.0000E+00  0.9600E+02
     -3.712  0.0000E+00  0.9600E+02
     -3.640  0.0000E+00  0.9600E+02
     -3.569  0.0000E+00  0.9600E+02
     -3.497  0.0000E+00  0.9600E+02
     -3.425  0.0000E+00  0.9600E+02
     -3.354  0.0000E+00  0.9600E+02
     -3.282  0.0000E+00  0.9600E+02
     -3.210  0.0000E+00  0.9600E+02
     -3.139  0.0000E+00  0.9600E+02
     -3.067  0.0000E+00  0.9600E+02
     -2.995  0.0000E+00  0.9600E+02
     -2.924  0.0000E+00  0.9600E+02
     -2.852  0.0000E+00  0.9600E+02
     -2.780  0.0000E+00  0.9600E+02
     -2.709  0.0000E+00  0.9600E+02
     -2.637  0.0000E+00  0.9600E+02
     -2.565  0.0000E+00  0.9600E+02
     -2.494  0.0000E+00  0.9600E+02
     -2.422  0.0000E+00  0.9600E+02
     -2.351  0.0000E+00  0.9600E+02
     -2.279  0.0000E+00  0.9600E+02
     -2.207  0.0000E+00  0.9600E+02
     -2.136  0.0000E+00  0.9600E+02
     -2.064  0.0000E+00  0.9600E+02
     -1.992  0.0000E+00  0.9600E+02
     -1.921  0.0000E+00  0.9600E+02
     -1.849  0.0000E+00  0.9600E+02
     -1.777  0.0000E+00  0.9600E+02
     -1.706  0.0000E+00  0.9600E+02
     -1.634  0.0000E+00  0.9600E+02
     -1.562  0.0000E+00  0.9600E+02
     -1.491  0.0000E+00  0.9600E+02
     -1.419  0.0000E+00  0.9600E+02
     -1.347  0.0000E+00  0.9600E+02
     -1.276  0.0000E+00  0.9600E+02
     -1.204  0.0000E+00  0.9600E+02
     -1.132  0.0000E+00  0.9600E+02
     -1.061  0.0000E+00  0.9600E+02
     -0.989  0.0000E+00  0.9600E+02
     -0.917  0.0000E+00  0.9600E+02
     -0.846  0.0000E+00  0.9600E+02
     -0.774  0.0000E+00  0.9600E+02
     -0.703  0.0000E+00  0.9600E+02
     -0.631  0.1356E-14  0.9600E+02
     -0.559  0.2836E-08  0.9600E+02
     -0.488  0.1083E-03  0.9600E+02
     -0.416  0.8348E-01  0.9601E+02
     -0.344  0.1729E+01  0.9613E+02
     -0.273  0.1888E+01  0.9627E+02
     -0.201  0.8117E+01  0.9685E+02
     -0.129  0.1540E+02  0.9795E+02
     -0.058  0.2393E+02  0.9966E+02
      0.014  0.5083E+02  0.1033E+03
      0.086  0.1013E+03  0.1106E+03
      0.157  0.1883E+03  0.1241E+03
      0.229  0.2048E+03  0.1387E+03
      0.301  0.2743E+03  0.1584E+03
      0.372  0.1946E+03  0.1723E+03
      0.444  0.1253E+03  0.1813E+03
      0.516  0.1407E+03  0.1914E+03
      0.587  0.1243E+03  0.2003E+03
      0.659  0.1651E+03  0.2121E+03
      0.730  0.2449E+03  0.2297E+03
      0.802  0.2292E+03  0.2461E+03
      0.874  0.2907E+03  0.2669E+03
      0.945  0.2862E+03  0.2874E+03
      1.017  0.1475E+03  0.2980E+03
      1.089  0.1829E+03  0.3111E+03
      1.160  0.2265E+03  0.3274E+03
      1.232  0.2290E+03  0.3438E+03
      1.304  0.2979E+03  0.3651E+03
      1.375  0.3059E+03  0.3870E+03
      1.447  0.3911E+03  0.4150E+03
      1.519  0.3557E+03  0.4405E+03
      1.590  0.3727E+03  0.4672E+03
      1.662  0.3655E+03  0.4934E+03
      1.734  0.3911E+03  0.5215E+03
      1.805  0.3727E+03  0.5482E+03
      1.877  0.3579E+03  0.5738E+03
      1.949  0.3885E+03  0.6016E+03
      2.020  0.4146E+03  0.6314E+03
      2.092  0.3790E+03  0.6585E+03
      2.164  0.3610E+03  0.6844E+03
      2.235  0.3749E+03  0.7112E+03
      2.307  0.3975E+03  0.7397E+03
      2.378  0.3386E+03  0.7640E+03
      2.450  0.2965E+03  0.7852E+03
      2.522  0.3388E+03  0.8095E+03
      2.593  0.3545E+03  0.8349E+03
      2.665  0.4085E+03  0.8642E+03
      2.737  0.3748E+03  0.8910E+03
      2.808  0.3790E+03  0.9182E+03
      2.880  0.4314E+03  0.9491E+03
      2.952  0.4984E+03  0.9848E+03
      3.023  0.4976E+03  0.1020E+04
      3.095  0.3708E+03  0.1047E+04
      3.167  0.2345E+03  0.1064E+04
      3.238  0.2054E+03  0.1079E+04
      3.310  0.1710E+03  0.1091E+04
      3.382  0.1387E+03  0.1101E+04
      3.453  0.1191E+03  0.1109E+04
      3.525  0.1571E+03  0.1121E+04
      3.597  0.1636E+03  0.1132E+04
      3.668  0.1014E+03  0.1140E+04
      3.740  0.9677E+02  0.1146E+04
      3.812  0.6542E+02  0.1151E+04
      3.883  0.7204E+02  0.1156E+04
      3.955  0.7353E+02  0.1162E+04
      4.026  0.6508E+02  0.1166E+04
      4.098  0.9239E+02  0.1173E+04
      4.170  0.1029E+03  0.1180E+04
      4.241  0.1148E+03  0.1188E+04
      4.313  0.7528E+02  0.1194E+04
      4.385  0.7286E+02  0.1199E+04
      4.456  0.6533E+02  0.1204E+04
      4.528  0.9197E+02  0.1210E+04
      4.600  0.9335E+02  0.1217E+04
      4.671  0.1024E+03  0.1224E+04
      4.743  0.1392E+03  0.1234E+04
      4.815  0.1384E+03  0.1244E+04
      4.886  0.7309E+02  0.1249E+04
      4.958  0.5349E+02  0.1253E+04
      5.030  0.5503E+02  0.1257E+04
      5.101  0.8666E+02  0.1263E+04
      5.173  0.1439E+03  0.1274E+04
      5.245  0.1095E+03  0.1282E+04
      5.316  0.6327E+02  0.1286E+04
      5.388  0.5930E+02  0.1290E+04
      5.460  0.6932E+02  0.1295E+04
      5.531  0.7237E+02  0.1301E+04
      5.603  0.7651E+02  0.1306E+04
      5.674  0.1100E+03  0.1314E+04
      5.746  0.1325E+03  0.1323E+04
      5.818  0.7303E+02  0.1329E+04
      5.889  0.6443E+02  0.1333E+04
      5.961  0.5866E+02  0.1337E+04
      6.033  0.3061E+02  0.1340E+04
      6.104  0.1895E+02  0.1341E+04
      6.176  0.2154E+02  0.1343E+04
      6.248  0.1693E+02  0.1344E+04
      6.319  0.9079E+01  0.1344E+04
      6.391  0.9830E+00  0.1344E+04
      6.463  0.1156E+00  0.1345E+04
      6.534  0.1870E+01  0.1345E+04
      6.606  0.1792E+01  0.1345E+04
      6.678  0.5258E+01  0.1345E+04
      6.749  0.2276E+02  0.1347E+04
      6.821  0.2611E+02  0.1349E+04
      6.893  0.1131E+02  0.1349E+04
      6.964  0.6311E+01  0.1350E+04
      7.036  0.8976E+01  0.1351E+04
      7.108  0.4666E+01  0.1351E+04
      7.179  0.2132E+02  0.1352E+04
      7.251  0.2392E+02  0.1354E+04
      7.322  0.2813E+02  0.1356E+04
      7.394  0.3123E+02  0.1358E+04
      7.466  0.3040E+02  0.1361E+04
      7.537  0.6011E+02  0.1365E+04
      7.609  0.7203E+02  0.1370E+04
      7.681  0.2682E+02  0.1372E+04
      7.752  0.5427E+02  0.1376E+04
      7.824  0.6959E+02  0.1381E+04
      7.896  0.7328E+02  0.1386E+04
      7.967  0.7535E+02  0.1391E+04
      8.039  0.6648E+02  0.1396E+04
      8.111  0.3458E+02  0.1399E+04
      8.182  0.1882E+02  0.1400E+04
      8.254  0.8451E+01  0.1401E+04
      8.326  0.1012E+02  0.1401E+04
      8.397  0.5057E+02  0.1405E+04
      8.469  0.3452E+02  0.1407E+04
      8.541  0.3170E+02  0.1410E+04
      8.612  0.9432E+02  0.1417E+04
      8.684  0.1051E+03  0.1424E+04
      8.756  0.5878E+02  0.1428E+04
      8.827  0.5160E+02  0.1432E+04
      8.899  0.3338E+02  0.1434E+04
      8.970  0.4581E+02  0.1438E+04
      9.042  0.3050E+02  0.1440E+04
      9.114  0.2230E+02  0.1441E+04
      9.185  0.1038E+02  0.1442E+04
      9.257  0.1643E+02  0.1443E+04
      9.329  0.5330E+02  0.1447E+04
      9.400  0.4977E+02  0.1451E+04
      9.472  0.5432E+02  0.1455E+04
      9.544  0.3826E+02  0.1457E+04
      9.615  0.5066E+02  0.1461E+04
      9.687  0.5004E+02  0.1465E+04
      9.759  0.4790E+02  0.1468E+04
      9.830  0.5221E+02  0.1472E+04
      9.902  0.7639E+02  0.1477E+04
      9.974  0.5563E+02  0.1481E+04
     10.045  0.1077E+03  0.1489E+04
     10.117  0.1194E+03  0.1497E+04
     10.189  0.4367E+02  0.1501E+04
     10.260  0.2834E+02  0.1503E+04
     10.332  0.4880E+02  0.1506E+04
     10.404  0.5580E+02  0.1510E+04
     10.475  0.9026E+02  0.1517E+04
     10.547  0.1095E+03  0.1524E+04
     10.618  0.1122E+03  0.1532E+04
     10.690  0.9456E+02  0.1539E+04
     10.762  0.7809E+02  0.1545E+04
     10.833  0.1072E+03  0.1553E+04
     10.905  0.9034E+02  0.1559E+04
     10.977  0.6512E+02  0.1564E+04
     11.048  0.3522E+02  0.1566E+04
     11.120  0.5499E+02  0.1570E+04
     11.192  0.5213E+02  0.1574E+04
     11.263  0.4450E+02  0.1577E+04
     11.335  0.8300E+02  0.1583E+04
     11.407  0.5381E+02  0.1587E+04
     11.478  0.5457E+02  0.1591E+04
     11.550  0.8872E+02  0.1597E+04
     11.622  0.6842E+02  0.1602E+04
     11.693  0.4660E+02  0.1605E+04
     11.765  0.1235E+02  0.1606E+04
     11.837  0.1474E+02  0.1607E+04
     11.908  0.3606E+02  0.1610E+04
     11.980  0.2116E+02  0.1611E+04
     12.052  0.3053E+01  0.1612E+04
     12.123  0.4537E+01  0.1612E+04
     12.195  0.5642E+00  0.1612E+04
     12.266  0.2262E-02  0.1612E+04
     12.338  0.2022E-06  0.1612E+04
     12.410  0.3490E-12  0.1612E+04
     12.481  0.0000E+00  0.1612E+04
     12.553  0.0000E+00  0.1612E+04
     12.625  0.0000E+00  0.1612E+04
     12.696  0.0000E+00  0.1612E+04
     12.768  0.0000E+00  0.1612E+04
     12.840  0.0000E+00  0.1612E+04
     12.911  0.0000E+00  0.1612E+04
     12.983  0.0000E+00  0.1612E+04
     13.055  0.0000E+00  0.1612E+04
