<?xml version="1.0" encoding="ISO-8859-1"?>
<modeling>
 <generator>
  <i name="program" type="string">vasp </i>
  <i name="version" type="string">5.4.4.18Apr17-6-g9f103f2a35  </i>
  <i name="subversion" type="string">(build Jul 30 2020 14:31:59) complex            parallel </i>
  <i name="platform" type="string">LinuxIFC </i>
  <i name="date" type="string">2021 02 04 </i>
  <i name="time" type="string">07:58:50 </i>
 </generator>
 <incar>
  <i type="string" name="PREC">accurate</i>
  <i type="string" name="ALGO"> normal</i>
  <i type="logical" name="ADDGRID"> T  </i>
  <i type="int" name="ISPIN">     1</i>
  <i type="int" name="NELM">   200</i>
  <i type="int" name="NELMIN">     8</i>
  <i name="EDIFF">      0.00000001</i>
  <i type="int" name="ISIF">     3</i>
  <i type="int" name="ISYM">     0</i>
  <i name="ENCUT">    650.00000000</i>
  <i type="logical" name="LREAL"> F  </i>
  <i type="int" name="ISMEAR">     0</i>
  <i name="SIGMA">      0.05000000</i>
  <i type="logical" name="LWAVE"> F  </i>
  <i type="logical" name="LASPH"> T  </i>
  <v type="int" name="KPOINT_BSE">    -1     0     0     0</v>
  <i type="int" name="NELM">   200</i>
  <i type="string" name="GGA"> ps</i>
  <i type="logical" name="LASPH"> T  </i>
 </incar>
 <structure name="primitive_cell" >
  <crystal>
   <varray name="basis" >
    <v>      14.01039598       0.00139138       0.00000000 </v>
    <v>      -0.00150196      13.76691092       0.00000000 </v>
    <v>       0.00000000       0.00000000      14.55019386 </v>
   </varray>
   <i name="volume">   2806.43958022 </i>
   <varray name="rec_basis" >
    <v>       0.07137557       0.00000779       0.00000000 </v>
    <v>      -0.00000721       0.07263794       0.00000000 </v>
    <v>       0.00000000       0.00000000       0.06872761 </v>
   </varray>
  </crystal>
  <varray name="positions" >
   <v>       0.42987898       0.17167077       0.33247735 </v>
   <v>      -0.50000000       0.00000000       0.38812698 </v>
   <v>       0.25000000       0.25000000       0.33409665 </v>
   <v>      -0.50000000       0.25000000       0.16743769 </v>
   <v>      -0.42987656       0.07832506       0.22308000 </v>
   <v>      -0.50000000       0.25000000      -0.49922898 </v>
   <v>       0.32012224       0.17167631       0.49914189 </v>
   <v>       0.32012224       0.17167631       0.16580856 </v>
   <v>      -0.42987898       0.32832923       0.33247735 </v>
   <v>       0.42987656      -0.07832506       0.22308000 </v>
   <v>       0.42987656       0.42167494       0.22308000 </v>
   <v>       0.25000000       0.00000000       0.22145206 </v>
   <v>       0.17987948       0.07832633       0.38974408 </v>
   <v>      -0.32012052       0.07832633       0.38974408 </v>
   <v>       0.32012052      -0.07832633       0.38974408 </v>
   <v>       0.32012052       0.42167367       0.38974408 </v>
   <v>      -0.42987656       0.07832506      -0.44358667 </v>
   <v>      -0.25000000       0.25000000       0.33409665 </v>
   <v>      -0.50000000      -0.50000000       0.38812698 </v>
   <v>       0.25000000       0.00000000      -0.44521461 </v>
   <v>       0.42987656      -0.07832506      -0.44358667 </v>
   <v>       0.42987656       0.42167494      -0.44358667 </v>
   <v>      -0.32012224       0.32832369       0.49914189 </v>
   <v>      -0.32012224       0.32832369       0.16580856 </v>
   <v>       0.17987776       0.32832369       0.49914189 </v>
   <v>       0.17987776       0.32832369       0.16580856 </v>
   <v>      -0.50000000       0.00000000       0.05479365 </v>
   <v>       0.42987898       0.17167077      -0.33418932 </v>
   <v>       0.42987898       0.17167077      -0.00085599 </v>
   <v>      -0.42987898      -0.17167077       0.33247735 </v>
   <v>      -0.25000000       0.00000000       0.22145206 </v>
   <v>       0.25000000      -0.50000000       0.22145206 </v>
   <v>       0.07012344       0.07832506       0.22308000 </v>
   <v>       0.17987948       0.07832633       0.05641075 </v>
   <v>      -0.32012052       0.07832633       0.05641075 </v>
   <v>       0.07012102       0.32832923       0.33247735 </v>
   <v>       0.32012052      -0.07832633       0.05641075 </v>
   <v>       0.31940677       0.42167367       0.05641075 </v>
   <v>       0.25000000       0.25000000       0.00076332 </v>
   <v>       0.25000000       0.25000000      -0.33257001 </v>
   <v>      -0.42987898       0.32832923      -0.33418932 </v>
   <v>      -0.42987898       0.32832923      -0.00085599 </v>
   <v>      -0.17987776       0.17167631       0.49914189 </v>
   <v>      -0.17987776       0.17167631       0.16580856 </v>
   <v>      -0.25000000       0.00000000      -0.44521461 </v>
   <v>       0.25000000      -0.50000000      -0.44521461 </v>
   <v>       0.07012344       0.07832506      -0.44358667 </v>
   <v>      -0.50000000      -0.50000000       0.05479365 </v>
   <v>      -0.42987656      -0.42167494       0.22308000 </v>
   <v>      -0.50000000       0.00000000      -0.27853968 </v>
   <v>       0.25000000      -0.25000000       0.33409665 </v>
   <v>      -0.50000000      -0.25000000       0.16743769 </v>
   <v>       0.17987776      -0.17167631       0.49914189 </v>
   <v>       0.17987776      -0.17167631       0.16580856 </v>
   <v>      -0.32012224      -0.17167631       0.49914189 </v>
   <v>      -0.32012224      -0.17167631       0.16580856 </v>
   <v>      -0.50000000      -0.25000000      -0.49922898 </v>
   <v>      -0.17987948       0.42167367       0.38974408 </v>
   <v>      -0.17987948      -0.07832633       0.38974408 </v>
   <v>       0.00000000       0.00000000       0.38812698 </v>
   <v>      -0.25000000      -0.50000000       0.22145206 </v>
   <v>       0.00000000       0.25000000       0.16743769 </v>
   <v>       0.00000000       0.25000000      -0.49922898 </v>
   <v>      -0.32012052      -0.42167367       0.38974408 </v>
   <v>       0.17987948      -0.42167367       0.38974408 </v>
   <v>      -0.25000000       0.25000000       0.00076332 </v>
   <v>      -0.25000000       0.25000000      -0.33257001 </v>
   <v>      -0.42987656      -0.42167494      -0.44358667 </v>
   <v>       0.17987948       0.07832633      -0.27692259 </v>
   <v>      -0.32012052       0.07832633      -0.27692259 </v>
   <v>       0.32012052      -0.07832633      -0.27692259 </v>
   <v>       0.32012052       0.42167367      -0.27692259 </v>
   <v>      -0.42987656       0.07832506      -0.11025334 </v>
   <v>       0.42987898      -0.32832923       0.33247735 </v>
   <v>       0.07012102      -0.17167077       0.33247735 </v>
   <v>      -0.07012102       0.17167077       0.33247735 </v>
   <v>      -0.42987898      -0.17167077      -0.33418932 </v>
   <v>      -0.42987898      -0.17167077      -0.00085599 </v>
   <v>      -0.25000000      -0.50000000      -0.44521461 </v>
   <v>       0.42987656      -0.07832506      -0.11025334 </v>
   <v>       0.42987656       0.42167494      -0.11025334 </v>
   <v>      -0.50000000      -0.50000000      -0.27853968 </v>
   <v>       0.07012102       0.32832923      -0.33418932 </v>
   <v>       0.07012102       0.32832923      -0.00085599 </v>
   <v>       0.25000000       0.00000000      -0.11188127 </v>
   <v>      -0.25000000      -0.25000000       0.33409665 </v>
   <v>      -0.50000000       0.25000000      -0.16589565 </v>
   <v>       0.32012224       0.17167631      -0.16752478 </v>
   <v>       0.32012224      -0.32832369       0.49914189 </v>
   <v>       0.32012224      -0.32832369       0.16580856 </v>
   <v>       0.00000000      -0.50000000       0.38812698 </v>
   <v>      -0.17987948       0.42167367       0.05641075 </v>
   <v>      -0.17987948      -0.07832633       0.05641075 </v>
   <v>       0.00000000       0.00000000       0.05479365 </v>
   <v>       0.07012344      -0.42167494       0.22308000 </v>
   <v>      -0.32012052      -0.42167367       0.05641075 </v>
   <v>       0.17987948      -0.42167367       0.05641075 </v>
   <v>       0.25000000      -0.25000000       0.00076332 </v>
   <v>      -0.07012344       0.42167494       0.22308000 </v>
   <v>      -0.07012344      -0.07832506       0.22308000 </v>
   <v>       0.25000000      -0.25000000      -0.33257001 </v>
   <v>       0.07012344      -0.42167494      -0.44358667 </v>
   <v>      -0.25000000       0.00000000      -0.11188127 </v>
   <v>       0.07012344       0.07832506      -0.11025334 </v>
   <v>       0.25000000      -0.50000000      -0.11188127 </v>
   <v>      -0.32012224       0.32832369      -0.16752478 </v>
   <v>       0.17987776       0.32832369      -0.16752478 </v>
   <v>       0.42987898      -0.32832923      -0.33418932 </v>
   <v>       0.42987898      -0.32832923      -0.00085599 </v>
   <v>       0.07012102      -0.17167077      -0.33418932 </v>
   <v>       0.07012102      -0.17167077      -0.00085599 </v>
   <v>      -0.07012344       0.42167494      -0.44358667 </v>
   <v>      -0.07012344      -0.07832506      -0.44358667 </v>
   <v>      -0.07012102       0.17167077      -0.33418932 </v>
   <v>      -0.07012102       0.17167077      -0.00085599 </v>
   <v>       0.00000000      -0.50000000       0.05479365 </v>
   <v>       0.00000000       0.00000000      -0.27853968 </v>
   <v>      -0.17987948       0.42167367      -0.27692259 </v>
   <v>      -0.17987948      -0.07832633      -0.27692259 </v>
   <v>       0.00000000      -0.25000000       0.16743769 </v>
   <v>      -0.32012052      -0.42167367      -0.27692259 </v>
   <v>       0.17987948      -0.42167367      -0.27692259 </v>
   <v>       0.00000000      -0.25000000      -0.49922898 </v>
   <v>      -0.42987656      -0.42167494      -0.11025334 </v>
   <v>      -0.25000000      -0.25000000       0.00076332 </v>
   <v>      -0.25000000      -0.25000000      -0.33257001 </v>
   <v>      -0.25000000      -0.50000000      -0.11188127 </v>
   <v>      -0.17987776       0.17167631      -0.16752478 </v>
   <v>      -0.17987776      -0.32832369       0.49914189 </v>
   <v>      -0.17987776      -0.32832369       0.16580856 </v>
   <v>      -0.50000000      -0.25000000      -0.16589565 </v>
   <v>       0.17987776      -0.17167631      -0.16752478 </v>
   <v>      -0.32012224      -0.17167631      -0.16752478 </v>
   <v>       0.00000000      -0.50000000      -0.27853968 </v>
   <v>       0.00000000       0.25000000      -0.16589565 </v>
   <v>      -0.07012102      -0.32832923       0.33247735 </v>
   <v>       0.07012344      -0.42167494      -0.11025334 </v>
   <v>      -0.07012344       0.42167494      -0.11025334 </v>
   <v>      -0.07012344      -0.07832506      -0.11025334 </v>
   <v>       0.32012224      -0.32832369      -0.16752478 </v>
   <v>      -0.07012102      -0.32832923      -0.33418932 </v>
   <v>      -0.07012102      -0.32832923      -0.00085599 </v>
   <v>       0.00000000      -0.25000000      -0.16589565 </v>
   <v>      -0.17987776      -0.32832369      -0.16752478 </v>
  </varray>
 </structure>
 <varray name="primitive_index" >
  <v type="int" >        1 </v>
  <v type="int" >      102 </v>
  <v type="int" >      137 </v>
  <v type="int" >      122 </v>
  <v type="int" >       86 </v>
  <v type="int" >      126 </v>
  <v type="int" >       65 </v>
  <v type="int" >       61 </v>
  <v type="int" >       14 </v>
  <v type="int" >       75 </v>
  <v type="int" >       73 </v>
  <v type="int" >      109 </v>
  <v type="int" >       41 </v>
  <v type="int" >       42 </v>
  <v type="int" >       31 </v>
  <v type="int" >       29 </v>
  <v type="int" >       90 </v>
  <v type="int" >      138 </v>
  <v type="int" >      104 </v>
  <v type="int" >      113 </v>
  <v type="int" >       79 </v>
  <v type="int" >       77 </v>
  <v type="int" >       54 </v>
  <v type="int" >       50 </v>
  <v type="int" >       53 </v>
  <v type="int" >       49 </v>
  <v type="int" >       98 </v>
  <v type="int" >        5 </v>
  <v type="int" >        9 </v>
  <v type="int" >       16 </v>
  <v type="int" >      110 </v>
  <v type="int" >      111 </v>
  <v type="int" >       85 </v>
  <v type="int" >       37 </v>
  <v type="int" >       38 </v>
  <v type="int" >       13 </v>
  <v type="int" >       27 </v>
  <v type="int" >       25 </v>
  <v type="int" >      133 </v>
  <v type="int" >      141 </v>
  <v type="int" >       18 </v>
  <v type="int" >       22 </v>
  <v type="int" >       66 </v>
  <v type="int" >       62 </v>
  <v type="int" >      114 </v>
  <v type="int" >      115 </v>
  <v type="int" >       89 </v>
  <v type="int" >      100 </v>
  <v type="int" >       88 </v>
  <v type="int" >      106 </v>
  <v type="int" >      139 </v>
  <v type="int" >      124 </v>
  <v type="int" >       55 </v>
  <v type="int" >       51 </v>
  <v type="int" >       56 </v>
  <v type="int" >       52 </v>
  <v type="int" >      128 </v>
  <v type="int" >       30 </v>
  <v type="int" >       32 </v>
  <v type="int" >      101 </v>
  <v type="int" >      112 </v>
  <v type="int" >      121 </v>
  <v type="int" >      125 </v>
  <v type="int" >       44 </v>
  <v type="int" >       43 </v>
  <v type="int" >      134 </v>
  <v type="int" >      142 </v>
  <v type="int" >       92 </v>
  <v type="int" >       45 </v>
  <v type="int" >       46 </v>
  <v type="int" >       35 </v>
  <v type="int" >       33 </v>
  <v type="int" >       94 </v>
  <v type="int" >        3 </v>
  <v type="int" >       15 </v>
  <v type="int" >        2 </v>
  <v type="int" >       20 </v>
  <v type="int" >       24 </v>
  <v type="int" >      116 </v>
  <v type="int" >       83 </v>
  <v type="int" >       81 </v>
  <v type="int" >      108 </v>
  <v type="int" >       17 </v>
  <v type="int" >       21 </v>
  <v type="int" >      117 </v>
  <v type="int" >      140 </v>
  <v type="int" >      130 </v>
  <v type="int" >       69 </v>
  <v type="int" >       67 </v>
  <v type="int" >       63 </v>
  <v type="int" >      103 </v>
  <v type="int" >       26 </v>
  <v type="int" >       28 </v>
  <v type="int" >       97 </v>
  <v type="int" >       87 </v>
  <v type="int" >       40 </v>
  <v type="int" >       39 </v>
  <v type="int" >      135 </v>
  <v type="int" >       74 </v>
  <v type="int" >       76 </v>
  <v type="int" >      143 </v>
  <v type="int" >       91 </v>
  <v type="int" >      118 </v>
  <v type="int" >       93 </v>
  <v type="int" >      119 </v>
  <v type="int" >       58 </v>
  <v type="int" >       57 </v>
  <v type="int" >        7 </v>
  <v type="int" >       11 </v>
  <v type="int" >       19 </v>
  <v type="int" >       23 </v>
  <v type="int" >       78 </v>
  <v type="int" >       80 </v>
  <v type="int" >        6 </v>
  <v type="int" >       10 </v>
  <v type="int" >       99 </v>
  <v type="int" >      105 </v>
  <v type="int" >       34 </v>
  <v type="int" >       36 </v>
  <v type="int" >      123 </v>
  <v type="int" >       48 </v>
  <v type="int" >       47 </v>
  <v type="int" >      127 </v>
  <v type="int" >       96 </v>
  <v type="int" >      136 </v>
  <v type="int" >      144 </v>
  <v type="int" >      120 </v>
  <v type="int" >       70 </v>
  <v type="int" >       68 </v>
  <v type="int" >       64 </v>
  <v type="int" >      132 </v>
  <v type="int" >       59 </v>
  <v type="int" >       60 </v>
  <v type="int" >      107 </v>
  <v type="int" >      129 </v>
  <v type="int" >        4 </v>
  <v type="int" >       95 </v>
  <v type="int" >       82 </v>
  <v type="int" >       84 </v>
  <v type="int" >       71 </v>
  <v type="int" >        8 </v>
  <v type="int" >       12 </v>
  <v type="int" >      131 </v>
  <v type="int" >       72 </v>
 </varray>
 <kpoints>
  <generation param="Gamma">
   <v type="int" name="divisions">       2        2        2 </v>
   <v name="usershift">      0.00000000       0.00000000       0.00000000 </v>
   <v name="genvec1">      0.50000000       0.00000000       0.00000000 </v>
   <v name="genvec2">      0.00000000       0.50000000       0.00000000 </v>
   <v name="genvec3">      0.00000000       0.00000000       0.50000000 </v>
   <v name="shift">      0.00000000       0.00000000       0.00000000 </v>
  </generation>
  <varray name="kpointlist" >
   <v>       0.00000000       0.00000000       0.00000000 </v>
   <v>       0.50000000      -0.00000000       0.00000000 </v>
   <v>       0.00000000       0.50000000       0.00000000 </v>
   <v>       0.50000000       0.50000000       0.00000000 </v>
   <v>       0.00000000       0.00000000       0.50000000 </v>
   <v>       0.50000000      -0.00000000       0.50000000 </v>
   <v>       0.00000000       0.50000000       0.50000000 </v>
   <v>       0.50000000       0.50000000       0.50000000 </v>
  </varray>
  <varray name="weights" >
   <v>       0.12500000 </v>
   <v>       0.12500000 </v>
   <v>       0.12500000 </v>
   <v>       0.12500000 </v>
   <v>       0.12500000 </v>
   <v>       0.12500000 </v>
   <v>       0.12500000 </v>
   <v>       0.12500000 </v>
  </varray>
 </kpoints>
 <parameters>
  <separator name="general" >
   <i type="string" name="SYSTEM">unknown system</i>
   <i type="logical" name="LCOMPAT"> F  </i>
  </separator>
  <separator name="electronic" >
   <i type="string" name="PREC">accura</i>
   <i name="ENMAX">    650.00000000</i>
   <i name="ENAUG">    446.84200000</i>
   <i name="EDIFF">      0.00000001</i>
   <i type="int" name="IALGO">    38</i>
   <i type="int" name="IWAVPR">    10</i>
   <i type="int" name="NBANDS">   806</i>
   <i name="NELECT">   1344.00000000</i>
   <i type="int" name="TURBO">     0</i>
   <i type="int" name="IRESTART">     0</i>
   <i type="int" name="NREBOOT">     0</i>
   <i type="int" name="NMIN">     0</i>
   <i name="EREF">      0.00000000</i>
   <separator name="electronic smearing" >
    <i type="int" name="ISMEAR">     0</i>
    <i name="SIGMA">      0.05000000</i>
    <i name="KSPACING">      0.50000000</i>
    <i type="logical" name="KGAMMA"> T  </i>
   </separator>
   <separator name="electronic projectors" >
    <i type="logical" name="LREAL"> F  </i>
    <v name="ROPT">      0.00000000      0.00000000</v>
    <i type="int" name="LMAXPAW">  -100</i>
    <i type="int" name="LMAXMIX">     2</i>
    <i type="logical" name="NLSPLINE"> F  </i>
   </separator>
   <separator name="electronic startup" >
    <i type="int" name="ISTART">     0</i>
    <i type="int" name="ICHARG">     2</i>
    <i type="int" name="INIWAV">     1</i>
   </separator>
   <separator name="electronic spin" >
    <i type="int" name="ISPIN">     1</i>
    <i type="logical" name="LNONCOLLINEAR"> F  </i>
    <v name="MAGMOM">      1.00000000      1.00000000      1.00000000      1.00000000      1.00000000      1.00000000      1.00000000      1.00000000      1.00000000      1.00000000      1.00000000      1.00000000      1.00000000      1.00000000      1.00000000      1.00000000      1.00000000      1.00000000      1.00000000      1.00000000
      1.00000000      1.00000000      1.00000000      1.00000000      1.00000000      1.00000000      1.00000000      1.00000000      1.00000000      1.00000000      1.00000000      1.00000000      1.00000000      1.00000000      1.00000000      1.00000000      1.00000000      1.00000000      1.00000000      1.00000000
      1.00000000      1.00000000      1.00000000      1.00000000      1.00000000      1.00000000      1.00000000      1.00000000      1.00000000      1.00000000      1.00000000      1.00000000      1.00000000      1.00000000      1.00000000      1.00000000      1.00000000      1.00000000      1.00000000      1.00000000
      1.00000000      1.00000000      1.00000000      1.00000000      1.00000000      1.00000000      1.00000000      1.00000000      1.00000000      1.00000000      1.00000000      1.00000000      1.00000000      1.00000000      1.00000000      1.00000000      1.00000000      1.00000000      1.00000000      1.00000000
      1.00000000      1.00000000      1.00000000      1.00000000      1.00000000      1.00000000      1.00000000      1.00000000      1.00000000      1.00000000      1.00000000      1.00000000      1.00000000      1.00000000      1.00000000      1.00000000      1.00000000      1.00000000      1.00000000      1.00000000
      1.00000000      1.00000000      1.00000000      1.00000000      1.00000000      1.00000000      1.00000000      1.00000000      1.00000000      1.00000000      1.00000000      1.00000000      1.00000000      1.00000000      1.00000000      1.00000000      1.00000000      1.00000000      1.00000000      1.00000000
      1.00000000      1.00000000      1.00000000      1.00000000      1.00000000      1.00000000      1.00000000      1.00000000      1.00000000      1.00000000      1.00000000      1.00000000      1.00000000      1.00000000      1.00000000      1.00000000      1.00000000      1.00000000      1.00000000      1.00000000
      1.00000000      1.00000000      1.00000000      1.00000000</v>
    <i name="NUPDOWN">     -1.00000000</i>
    <i type="logical" name="LSORBIT"> F  </i>
    <v name="SAXIS">      0.00000000      0.00000000      1.00000000</v>
    <i type="logical" name="LSPIRAL"> F  </i>
    <v name="QSPIRAL">      0.00000000      0.00000000      0.00000000</v>
    <i type="logical" name="LZEROZ"> F  </i>
   </separator>
   <separator name="electronic exchange-correlation" >
    <i type="logical" name="LASPH"> T  </i>
    <i type="logical" name="LMETAGGA"> F  </i>
   </separator>
   <separator name="electronic convergence" >
    <i type="int" name="NELM">   200</i>
    <i type="int" name="NELMDL">    -5</i>
    <i type="int" name="NELMIN">     8</i>
    <i name="ENINI">    650.00000000</i>
    <separator name="electronic convergence detail" >
     <i type="logical" name="LDIAG"> T  </i>
     <i type="logical" name="LSUBROT"> F  </i>
     <i name="WEIMIN">      0.00000000</i>
     <i name="EBREAK">      0.00000000</i>
     <i name="DEPER">      0.30000000</i>
     <i type="int" name="NRMM">     4</i>
     <i name="TIME">      0.40000000</i>
    </separator>
   </separator>
   <separator name="electronic mixer" >
    <i name="AMIX">      0.40000000</i>
    <i name="BMIX">      1.00000000</i>
    <i name="AMIN">      0.10000000</i>
    <i name="AMIX_MAG">      1.60000000</i>
    <i name="BMIX_MAG">      1.00000000</i>
    <separator name="electronic mixer details" >
     <i type="int" name="IMIX">     4</i>
     <i type="logical" name="MIXFIRST"> F  </i>
     <i type="int" name="MAXMIX">   -45</i>
     <i name="WC">    100.00000000</i>
     <i type="int" name="INIMIX">     1</i>
     <i type="int" name="MIXPRE">     1</i>
     <i type="int" name="MREMOVE">     5</i>
    </separator>
   </separator>
   <separator name="electronic dipolcorrection" >
    <i type="logical" name="LDIPOL"> F  </i>
    <i type="logical" name="LMONO"> F  </i>
    <i type="int" name="IDIPOL">     0</i>
    <i name="EPSILON">      1.00000000</i>
    <v name="DIPOL">   -100.00000000   -100.00000000   -100.00000000</v>
    <i name="EFIELD">      0.00000000</i>
   </separator>
  </separator>
  <separator name="grids" >
   <i type="int" name="NGX">   120</i>
   <i type="int" name="NGY">   120</i>
   <i type="int" name="NGZ">   126</i>
   <i type="int" name="NGXF">   240</i>
   <i type="int" name="NGYF">   240</i>
   <i type="int" name="NGZF">   252</i>
   <i type="logical" name="ADDGRID"> T  </i>
  </separator>
  <separator name="ionic" >
   <i type="int" name="NSW">     0</i>
   <i type="int" name="IBRION">    -1</i>
   <i type="int" name="MDALGO">     0</i>
   <i type="int" name="ISIF">     3</i>
   <i name="PSTRESS">      0.00000000</i>
   <i name="EDIFFG">      0.00000010</i>
   <i type="int" name="NFREE">     0</i>
   <i name="POTIM">      0.50000000</i>
   <i name="SMASS">     -3.00000000</i>
   <i name="SCALEE">      1.00000000</i>
  </separator>
  <separator name="ionic md" >
   <i name="TEBEG">      0.00010000</i>
   <i name="TEEND">      0.00010000</i>
   <i type="int" name="NBLOCK">     1</i>
   <i type="int" name="KBLOCK">     1</i>
   <i type="int" name="NPACO">   256</i>
   <i name="APACO">     16.00000000</i>
  </separator>
  <separator name="symmetry" >
   <i type="int" name="ISYM">     0</i>
   <i name="SYMPREC">      0.00001000</i>
  </separator>
  <separator name="dos" >
   <i type="int" name="LORBIT">     0</i>
   <v name="RWIGS">     -1.00000000     -1.00000000</v>
   <i type="int" name="NEDOS">   301</i>
   <i name="EMIN">     10.00000000</i>
   <i name="EMAX">    -10.00000000</i>
   <i name="EFERMI">      0.00000000</i>
  </separator>
  <separator name="writing" >
   <i type="int" name="NWRITE">     2</i>
   <i type="logical" name="LWAVE"> F  </i>
   <i type="logical" name="LDOWNSAMPLE"> F  </i>
   <i type="logical" name="LCHARG"> T  </i>
   <i type="logical" name="LPARD"> F  </i>
   <i type="logical" name="LVTOT"> F  </i>
   <i type="logical" name="LVHAR"> F  </i>
   <i type="logical" name="LELF"> F  </i>
   <i type="logical" name="LOPTICS"> F  </i>
   <v name="STM">      0.00000000      0.00000000      0.00000000      0.00000000      0.00000000      0.00000000      0.00000000</v>
  </separator>
  <separator name="performance" >
   <i type="int" name="NPAR">     1</i>
   <i type="int" name="NSIM">     4</i>
   <i type="int" name="NBLK">    -1</i>
   <i type="logical" name="LPLANE"> T  </i>
   <i type="logical" name="LSCALAPACK"> T  </i>
   <i type="logical" name="LSCAAWARE"> F  </i>
   <i type="logical" name="LSCALU"> F  </i>
   <i type="logical" name="LASYNC"> F  </i>
   <i type="logical" name="LORBITALREAL"> F  </i>
  </separator>
  <separator name="miscellaneous" >
   <i type="int" name="IDIOT">     3</i>
   <i type="int" name="ISPECIAL">     0</i>
   <i type="logical" name="LMUSIC"> F  </i>
   <v name="POMASS">    107.86800000     78.96000000</v>
   <v name="DARWINR">      0.00000000      0.00000000</v>
   <v name="DARWINV">      1.00000000      1.00000000</v>
   <i type="logical" name="LCORR"> T  </i>
  </separator>
  <i type="logical" name="GGA_COMPAT"> T  </i>
  <i type="logical" name="LBERRY"> F  </i>
  <i type="int" name="ICORELEVEL">     0</i>
  <i type="logical" name="LDAU"> F  </i>
  <i type="int" name="I_CONSTRAINED_M">     0</i>
  <separator name="electronic exchange-correlation" >
   <i type="string" name="GGA">PS</i>
   <i type="int" name="VOSKOWN">     0</i>
   <i type="logical" name="LHFCALC"> F  </i>
   <i type="string" name="PRECFOCK"></i>
   <i type="logical" name="LSYMGRAD"> F  </i>
   <i type="logical" name="LHFONE"> F  </i>
   <i type="logical" name="LRHFCALC"> F  </i>
   <i type="logical" name="LTHOMAS"> F  </i>
   <i type="logical" name="LMODELHF"> F  </i>
   <i name="ENCUT4O">     -1.00000000</i>
   <i type="int" name="EXXOEP">     0</i>
   <i type="int" name="FOURORBIT">     0</i>
   <i name="AEXX">      0.00000000</i>
   <i name="HFALPHA">      0.00000000</i>
   <i name="MCALPHA">      0.00000000</i>
   <i name="ALDAX">      1.00000000</i>
   <i name="AGGAX">      1.00000000</i>
   <i name="ALDAC">      1.00000000</i>
   <i name="AGGAC">      1.00000000</i>
   <i type="int" name="NKREDX">     1</i>
   <i type="int" name="NKREDY">     1</i>
   <i type="int" name="NKREDZ">     1</i>
   <i type="logical" name="SHIFTRED"> F  </i>
   <i type="logical" name="ODDONLY"> F  </i>
   <i type="logical" name="EVENONLY"> F  </i>
   <i type="int" name="LMAXFOCK">     0</i>
   <i type="int" name="NMAXFOCKAE">     0</i>
   <i type="logical" name="LFOCKAEDFT"> F  </i>
   <i name="HFSCREEN">      0.00000000</i>
   <i name="HFSCREENC">      0.00000000</i>
   <i type="int" name="NBANDSGWLOW">     0</i>
  </separator>
  <separator name="vdW DFT" >
   <i type="logical" name="LUSE_VDW"> F  </i>
   <i name="Zab_VDW">     -0.84910000</i>
   <i name="PARAM1">      0.12340000</i>
   <i name="PARAM2">      1.00000000</i>
   <i name="PARAM3">      0.00000000</i>
  </separator>
  <separator name="model GW" >
   <i type="int" name="MODEL_GW">     0</i>
   <i name="MODEL_EPS0">     11.69349825</i>
   <i name="MODEL_ALPHA">      1.00000000</i>
  </separator>
  <separator name="linear response parameters" >
   <i type="logical" name="LEPSILON"> F  </i>
   <i type="logical" name="LRPA"> F  </i>
   <i type="logical" name="LNABLA"> F  </i>
   <i type="logical" name="LVEL"> F  </i>
   <i type="int" name="KINTER">     0</i>
   <i name="CSHIFT">      0.10000000</i>
   <i name="OMEGAMAX">     -1.00000000</i>
   <i name="DEG_THRESHOLD">      0.00200000</i>
   <i name="RTIME">     -0.10000000</i>
   <i name="WPLASMAI">      0.00000000</i>
   <v name="DFIELD">      0.00000000      0.00000000      0.00000000</v>
   <v name="WPLASMA">      0.00000000      0.00000000      0.00000000      0.00000000      0.00000000      0.00000000      0.00000000      0.00000000      0.00000000</v>
  </separator>
  <separator name="orbital magnetization" >
   <i type="logical" name="NUCIND"> F  </i>
   <v name="MAGPOS">      0.00000000      0.00000000      0.00000000</v>
   <i type="logical" name="LNICSALL"> T  </i>
   <i type="logical" name="ORBITALMAG"> F  </i>
   <i type="logical" name="LMAGBLOCH"> F  </i>
   <i type="logical" name="LCHIMAG"> F  </i>
   <i type="logical" name="LGAUGE"> T  </i>
   <i type="int" name="MAGATOM">     0</i>
   <v name="MAGDIPOL">      0.00000000      0.00000000      0.00000000</v>
   <v name="AVECCONST">      0.00000000      0.00000000      0.00000000</v>
  </separator>
  <separator name="response functions" >
   <i type="logical" name="LADDER"> F  </i>
   <i type="logical" name="LRPAFORCE"> F  </i>
   <i type="logical" name="LFXC"> F  </i>
   <i type="logical" name="LHARTREE"> T  </i>
   <i type="int" name="IBSE">     0</i>
   <v type="int" name="KPOINT">    -1     0     0     0</v>
   <i type="logical" name="LTCTE"> F  </i>
   <i type="logical" name="LTETE"> F  </i>
   <i type="logical" name="LTRIPLET"> F  </i>
   <i type="logical" name="LFXCEPS"> F  </i>
   <i type="logical" name="LFXHEG"> F  </i>
   <i type="int" name="NATURALO">     2</i>
   <i type="logical" name="L2ORDER"> F  </i>
   <i type="logical" name="LMP2LT"> F  </i>
   <i type="logical" name="LUSEW"> F  </i>
   <i name="ENCUTGW">     -2.00000000</i>
   <i name="ENCUTGWSOFT">     -2.00000000</i>
   <i name="ENCUTLF">     -1.00000000</i>
   <i type="int" name="LMAXMP2">    -1</i>
   <i name="SCISSOR">      0.00000000</i>
   <i type="int" name="NOMEGA">     0</i>
   <i type="int" name="NOMEGAR">     0</i>
   <i type="int" name="NBANDSGW">    -1</i>
   <i type="int" name="NBANDSO">    -1</i>
   <i type="int" name="NBANDSV">    -1</i>
   <i type="int" name="NELM">   200</i>
   <i type="int" name="NELMHF">     1</i>
   <i type="int" name="DIM">     3</i>
   <i type="int" name="ANTIRES">     0</i>
   <i name="OMEGAMAX">    -30.00000000</i>
   <i name="OMEGAMIN">    -30.00000000</i>
   <i name="OMEGATL">   -200.00000000</i>
   <i type="int" name="OMEGAGRID">   140</i>
   <i name="CSHIFT">     -0.10000000</i>
   <i type="logical" name="SELFENERGY"> F  </i>
   <i type="logical" name="LSPECTRAL"> F  </i>
   <i type="logical" name="LSPECTRALGW"> F  </i>
   <i type="logical" name="LSINGLES"> F  </i>
   <i type="logical" name="LFERMIGW"> F  </i>
   <i type="logical" name="ODDONLYGW"> F  </i>
   <i type="logical" name="EVENONLYGW"> F  </i>
   <i type="int" name="NKREDLFX">     1</i>
   <i type="int" name="NKREDLFY">     1</i>
   <i type="int" name="NKREDLFZ">     1</i>
   <i type="int" name="MAXMEM">  2800</i>
   <i type="int" name="TELESCOPE">     0</i>
   <i type="int" name="TAUPAR">     1</i>
   <i type="int" name="OMEGAPAR">    -1</i>
   <i name="LAMBDA">      1.00000000</i>
  </separator>
  <separator name="External order field" >
   <i name="OFIELD_KAPPA">      0.00000000</i>
   <v name="OFIELD_K">      0.00000000      0.00000000      0.00000000</v>
   <i name="OFIELD_Q6_NEAR">      0.00000000</i>
   <i name="OFIELD_Q6_FAR">      0.00000000</i>
   <i name="OFIELD_A">      0.00000000</i>
  </separator>
 </parameters>
 <atominfo>
  <atoms>     144 </atoms>
  <types>       2 </types>
  <array name="atoms" >
   <dimension dim="1">ion</dimension>
   <field type="string">element</field>
   <field type="int">atomtype</field>
   <set>
    <rc><c>Ag</c><c>   1</c></rc>
    <rc><c>Ag</c><c>   1</c></rc>
    <rc><c>Ag</c><c>   1</c></rc>
    <rc><c>Ag</c><c>   1</c></rc>
    <rc><c>Ag</c><c>   1</c></rc>
    <rc><c>Ag</c><c>   1</c></rc>
    <rc><c>Ag</c><c>   1</c></rc>
    <rc><c>Ag</c><c>   1</c></rc>
    <rc><c>Ag</c><c>   1</c></rc>
    <rc><c>Ag</c><c>   1</c></rc>
    <rc><c>Ag</c><c>   1</c></rc>
    <rc><c>Ag</c><c>   1</c></rc>
    <rc><c>Ag</c><c>   1</c></rc>
    <rc><c>Ag</c><c>   1</c></rc>
    <rc><c>Ag</c><c>   1</c></rc>
    <rc><c>Ag</c><c>   1</c></rc>
    <rc><c>Ag</c><c>   1</c></rc>
    <rc><c>Ag</c><c>   1</c></rc>
    <rc><c>Ag</c><c>   1</c></rc>
    <rc><c>Ag</c><c>   1</c></rc>
    <rc><c>Ag</c><c>   1</c></rc>
    <rc><c>Ag</c><c>   1</c></rc>
    <rc><c>Ag</c><c>   1</c></rc>
    <rc><c>Ag</c><c>   1</c></rc>
    <rc><c>Ag</c><c>   1</c></rc>
    <rc><c>Ag</c><c>   1</c></rc>
    <rc><c>Ag</c><c>   1</c></rc>
    <rc><c>Ag</c><c>   1</c></rc>
    <rc><c>Ag</c><c>   1</c></rc>
    <rc><c>Ag</c><c>   1</c></rc>
    <rc><c>Ag</c><c>   1</c></rc>
    <rc><c>Ag</c><c>   1</c></rc>
    <rc><c>Ag</c><c>   1</c></rc>
    <rc><c>Ag</c><c>   1</c></rc>
    <rc><c>Ag</c><c>   1</c></rc>
    <rc><c>Ag</c><c>   1</c></rc>
    <rc><c>Ag</c><c>   1</c></rc>
    <rc><c>Ag</c><c>   1</c></rc>
    <rc><c>Ag</c><c>   1</c></rc>
    <rc><c>Ag</c><c>   1</c></rc>
    <rc><c>Ag</c><c>   1</c></rc>
    <rc><c>Ag</c><c>   1</c></rc>
    <rc><c>Ag</c><c>   1</c></rc>
    <rc><c>Ag</c><c>   1</c></rc>
    <rc><c>Ag</c><c>   1</c></rc>
    <rc><c>Ag</c><c>   1</c></rc>
    <rc><c>Ag</c><c>   1</c></rc>
    <rc><c>Ag</c><c>   1</c></rc>
    <rc><c>Ag</c><c>   1</c></rc>
    <rc><c>Ag</c><c>   1</c></rc>
    <rc><c>Ag</c><c>   1</c></rc>
    <rc><c>Ag</c><c>   1</c></rc>
    <rc><c>Ag</c><c>   1</c></rc>
    <rc><c>Ag</c><c>   1</c></rc>
    <rc><c>Ag</c><c>   1</c></rc>
    <rc><c>Ag</c><c>   1</c></rc>
    <rc><c>Ag</c><c>   1</c></rc>
    <rc><c>Ag</c><c>   1</c></rc>
    <rc><c>Ag</c><c>   1</c></rc>
    <rc><c>Ag</c><c>   1</c></rc>
    <rc><c>Ag</c><c>   1</c></rc>
    <rc><c>Ag</c><c>   1</c></rc>
    <rc><c>Ag</c><c>   1</c></rc>
    <rc><c>Ag</c><c>   1</c></rc>
    <rc><c>Ag</c><c>   1</c></rc>
    <rc><c>Ag</c><c>   1</c></rc>
    <rc><c>Ag</c><c>   1</c></rc>
    <rc><c>Ag</c><c>   1</c></rc>
    <rc><c>Ag</c><c>   1</c></rc>
    <rc><c>Ag</c><c>   1</c></rc>
    <rc><c>Ag</c><c>   1</c></rc>
    <rc><c>Ag</c><c>   1</c></rc>
    <rc><c>Ag</c><c>   1</c></rc>
    <rc><c>Ag</c><c>   1</c></rc>
    <rc><c>Ag</c><c>   1</c></rc>
    <rc><c>Ag</c><c>   1</c></rc>
    <rc><c>Ag</c><c>   1</c></rc>
    <rc><c>Ag</c><c>   1</c></rc>
    <rc><c>Ag</c><c>   1</c></rc>
    <rc><c>Ag</c><c>   1</c></rc>
    <rc><c>Ag</c><c>   1</c></rc>
    <rc><c>Ag</c><c>   1</c></rc>
    <rc><c>Ag</c><c>   1</c></rc>
    <rc><c>Ag</c><c>   1</c></rc>
    <rc><c>Ag</c><c>   1</c></rc>
    <rc><c>Ag</c><c>   1</c></rc>
    <rc><c>Ag</c><c>   1</c></rc>
    <rc><c>Ag</c><c>   1</c></rc>
    <rc><c>Ag</c><c>   1</c></rc>
    <rc><c>Ag</c><c>   1</c></rc>
    <rc><c>Ag</c><c>   1</c></rc>
    <rc><c>Ag</c><c>   1</c></rc>
    <rc><c>Ag</c><c>   1</c></rc>
    <rc><c>Ag</c><c>   1</c></rc>
    <rc><c>Ag</c><c>   1</c></rc>
    <rc><c>Ag</c><c>   1</c></rc>
    <rc><c>Se</c><c>   2</c></rc>
    <rc><c>Se</c><c>   2</c></rc>
    <rc><c>Se</c><c>   2</c></rc>
    <rc><c>Se</c><c>   2</c></rc>
    <rc><c>Se</c><c>   2</c></rc>
    <rc><c>Se</c><c>   2</c></rc>
    <rc><c>Se</c><c>   2</c></rc>
    <rc><c>Se</c><c>   2</c></rc>
    <rc><c>Se</c><c>   2</c></rc>
    <rc><c>Se</c><c>   2</c></rc>
    <rc><c>Se</c><c>   2</c></rc>
    <rc><c>Se</c><c>   2</c></rc>
    <rc><c>Se</c><c>   2</c></rc>
    <rc><c>Se</c><c>   2</c></rc>
    <rc><c>Se</c><c>   2</c></rc>
    <rc><c>Se</c><c>   2</c></rc>
    <rc><c>Se</c><c>   2</c></rc>
    <rc><c>Se</c><c>   2</c></rc>
    <rc><c>Se</c><c>   2</c></rc>
    <rc><c>Se</c><c>   2</c></rc>
    <rc><c>Se</c><c>   2</c></rc>
    <rc><c>Se</c><c>   2</c></rc>
    <rc><c>Se</c><c>   2</c></rc>
    <rc><c>Se</c><c>   2</c></rc>
    <rc><c>Se</c><c>   2</c></rc>
    <rc><c>Se</c><c>   2</c></rc>
    <rc><c>Se</c><c>   2</c></rc>
    <rc><c>Se</c><c>   2</c></rc>
    <rc><c>Se</c><c>   2</c></rc>
    <rc><c>Se</c><c>   2</c></rc>
    <rc><c>Se</c><c>   2</c></rc>
    <rc><c>Se</c><c>   2</c></rc>
    <rc><c>Se</c><c>   2</c></rc>
    <rc><c>Se</c><c>   2</c></rc>
    <rc><c>Se</c><c>   2</c></rc>
    <rc><c>Se</c><c>   2</c></rc>
    <rc><c>Se</c><c>   2</c></rc>
    <rc><c>Se</c><c>   2</c></rc>
    <rc><c>Se</c><c>   2</c></rc>
    <rc><c>Se</c><c>   2</c></rc>
    <rc><c>Se</c><c>   2</c></rc>
    <rc><c>Se</c><c>   2</c></rc>
    <rc><c>Se</c><c>   2</c></rc>
    <rc><c>Se</c><c>   2</c></rc>
    <rc><c>Se</c><c>   2</c></rc>
    <rc><c>Se</c><c>   2</c></rc>
    <rc><c>Se</c><c>   2</c></rc>
    <rc><c>Se</c><c>   2</c></rc>
   </set>
  </array>
  <array name="atomtypes" >
   <dimension dim="1">type</dimension>
   <field type="int">atomspertype</field>
   <field type="string">element</field>
   <field>mass</field>
   <field>valence</field>
   <field type="string">pseudopotential</field>
   <set>
    <rc><c>  96</c><c>Ag</c><c>    107.86800000</c><c>     11.00000000</c><c>  PAW_PBE Ag 02Apr2005                  </c></rc>
    <rc><c>  48</c><c>Se</c><c>     78.96000000</c><c>      6.00000000</c><c>  PAW_PBE Se 06Sep2000                  </c></rc>
   </set>
  </array>
 </atominfo>
 <structure name="initialpos" >
  <crystal>
   <varray name="basis" >
    <v>      14.01039598       0.00139138       0.00000000 </v>
    <v>      -0.00150196      13.76691092       0.00000000 </v>
    <v>       0.00000000       0.00000000      14.55019386 </v>
   </varray>
   <i name="volume">   2806.43958022 </i>
   <varray name="rec_basis" >
    <v>       0.07137557       0.00000779       0.00000000 </v>
    <v>      -0.00000721       0.07263794       0.00000000 </v>
    <v>       0.00000000       0.00000000       0.06872761 </v>
   </varray>
  </crystal>
  <varray name="positions" >
   <v>       0.42987898       0.17167077       0.33247735 </v>
   <v>       0.92987898       0.17167077       0.33247735 </v>
   <v>       0.42987898       0.67167077       0.33247735 </v>
   <v>       0.92987898       0.67167077       0.33247735 </v>
   <v>       0.42987898       0.17167077       0.66581068 </v>
   <v>       0.92987898       0.17167077       0.66581068 </v>
   <v>       0.42987898       0.67167077       0.66581068 </v>
   <v>       0.92987898       0.67167077       0.66581068 </v>
   <v>       0.42987898       0.17167077       0.99914401 </v>
   <v>       0.92987898       0.17167077       0.99914401 </v>
   <v>       0.42987898       0.67167077       0.99914401 </v>
   <v>       0.92987898       0.67167077       0.99914401 </v>
   <v>       0.07012102       0.32832923       0.33247735 </v>
   <v>       0.57012102       0.32832923       0.33247735 </v>
   <v>       0.07012102       0.82832923       0.33247735 </v>
   <v>       0.57012102       0.82832923       0.33247735 </v>
   <v>       0.07012102       0.32832923       0.66581068 </v>
   <v>       0.57012102       0.32832923       0.66581068 </v>
   <v>       0.07012102       0.82832923       0.66581068 </v>
   <v>       0.57012102       0.82832923       0.66581068 </v>
   <v>       0.07012102       0.32832923       0.99914401 </v>
   <v>       0.57012102       0.32832923       0.99914401 </v>
   <v>       0.07012102       0.82832923       0.99914401 </v>
   <v>       0.57012102       0.82832923       0.99914401 </v>
   <v>       0.31940677       0.42167367       0.05641075 </v>
   <v>       0.82012053       0.42167367       0.05641075 </v>
   <v>       0.32012053       0.92167367       0.05641075 </v>
   <v>       0.82012053       0.92167367       0.05641075 </v>
   <v>       0.32012053       0.42167367       0.38974408 </v>
   <v>       0.82012053       0.42167367       0.38974408 </v>
   <v>       0.32012053       0.92167367       0.38974408 </v>
   <v>       0.82012053       0.92167367       0.38974408 </v>
   <v>       0.32012053       0.42167367       0.72307741 </v>
   <v>       0.82012053       0.42167367       0.72307741 </v>
   <v>       0.32012053       0.92167367       0.72307741 </v>
   <v>       0.82012053       0.92167367       0.72307741 </v>
   <v>       0.17987947       0.07832633       0.05641075 </v>
   <v>       0.67987947       0.07832633       0.05641075 </v>
   <v>       0.17987947       0.57832633       0.05641075 </v>
   <v>       0.67987947       0.57832633       0.05641075 </v>
   <v>       0.17987947       0.07832633       0.38974408 </v>
   <v>       0.67987947       0.07832633       0.38974408 </v>
   <v>       0.17987947       0.57832633       0.38974408 </v>
   <v>       0.67987947       0.57832633       0.38974408 </v>
   <v>       0.17987947       0.07832633       0.72307741 </v>
   <v>       0.67987947       0.07832633       0.72307741 </v>
   <v>       0.17987947       0.57832633       0.72307741 </v>
   <v>       0.67987947       0.57832633       0.72307741 </v>
   <v>       0.17987776       0.32832369       0.16580856 </v>
   <v>       0.67987776       0.32832369       0.16580856 </v>
   <v>       0.17987776       0.82832369       0.16580856 </v>
   <v>       0.67987776       0.82832369       0.16580856 </v>
   <v>       0.17987776       0.32832369       0.49914189 </v>
   <v>       0.67987776       0.32832369       0.49914189 </v>
   <v>       0.17987776       0.82832369       0.49914189 </v>
   <v>       0.67987776       0.82832369       0.49914189 </v>
   <v>       0.17987776       0.32832369       0.83247522 </v>
   <v>       0.67987776       0.32832369       0.83247522 </v>
   <v>       0.17987776       0.82832369       0.83247522 </v>
   <v>       0.67987776       0.82832369       0.83247522 </v>
   <v>       0.32012224       0.17167631       0.16580856 </v>
   <v>       0.82012224       0.17167631       0.16580856 </v>
   <v>       0.32012224       0.67167631       0.16580856 </v>
   <v>       0.82012224       0.67167631       0.16580856 </v>
   <v>       0.32012224       0.17167631       0.49914189 </v>
   <v>       0.82012224       0.17167631       0.49914189 </v>
   <v>       0.32012224       0.67167631       0.49914189 </v>
   <v>       0.82012224       0.67167631       0.49914189 </v>
   <v>       0.32012224       0.17167631       0.83247522 </v>
   <v>       0.82012224       0.17167631       0.83247522 </v>
   <v>       0.32012224       0.67167631       0.83247522 </v>
   <v>       0.82012224       0.67167631       0.83247522 </v>
   <v>       0.42987656       0.42167494       0.22308000 </v>
   <v>       0.92987656       0.42167494       0.22308000 </v>
   <v>       0.42987656       0.92167494       0.22308000 </v>
   <v>       0.92987656       0.92167494       0.22308000 </v>
   <v>       0.42987656       0.42167494       0.55641333 </v>
   <v>       0.92987656       0.42167494       0.55641333 </v>
   <v>       0.42987656       0.92167494       0.55641333 </v>
   <v>       0.92987656       0.92167494       0.55641333 </v>
   <v>       0.42987656       0.42167494       0.88974666 </v>
   <v>       0.92987656       0.42167494       0.88974666 </v>
   <v>       0.42987656       0.92167494       0.88974666 </v>
   <v>       0.92987656       0.92167494       0.88974666 </v>
   <v>       0.07012344       0.07832506       0.22308000 </v>
   <v>       0.57012344       0.07832506       0.22308000 </v>
   <v>       0.07012344       0.57832506       0.22308000 </v>
   <v>       0.57012344       0.57832506       0.22308000 </v>
   <v>       0.07012344       0.07832506       0.55641333 </v>
   <v>       0.57012344       0.07832506       0.55641333 </v>
   <v>       0.07012344       0.57832506       0.55641333 </v>
   <v>       0.57012344       0.57832506       0.55641333 </v>
   <v>       0.07012344       0.07832506       0.88974666 </v>
   <v>       0.57012344       0.07832506       0.88974666 </v>
   <v>       0.07012344       0.57832506       0.88974666 </v>
   <v>       0.57012344       0.57832506       0.88974666 </v>
   <v>       0.00000000       0.00000000       0.05479365 </v>
   <v>       0.50000000       0.00000000       0.05479365 </v>
   <v>       0.00000000       0.50000000       0.05479365 </v>
   <v>       0.50000000       0.50000000       0.05479365 </v>
   <v>       0.00000000       0.00000000       0.38812698 </v>
   <v>       0.50000000       0.00000000       0.38812698 </v>
   <v>       0.00000000       0.50000000       0.38812698 </v>
   <v>       0.50000000       0.50000000       0.38812698 </v>
   <v>       0.00000000       0.00000000       0.72146032 </v>
   <v>       0.50000000       0.00000000       0.72146032 </v>
   <v>       0.00000000       0.50000000       0.72146032 </v>
   <v>       0.50000000       0.50000000       0.72146032 </v>
   <v>       0.25000000       0.00000000       0.22145206 </v>
   <v>       0.75000000       0.00000000       0.22145206 </v>
   <v>       0.25000000       0.50000000       0.22145206 </v>
   <v>       0.75000000       0.50000000       0.22145206 </v>
   <v>       0.25000000       0.00000000       0.55478539 </v>
   <v>       0.75000000       0.00000000       0.55478539 </v>
   <v>       0.25000000       0.50000000       0.55478539 </v>
   <v>       0.75000000       0.50000000       0.55478539 </v>
   <v>       0.25000000       0.00000000       0.88811873 </v>
   <v>       0.75000000       0.00000000       0.88811873 </v>
   <v>       0.25000000       0.50000000       0.88811873 </v>
   <v>       0.75000000       0.50000000       0.88811873 </v>
   <v>       0.00000000       0.25000000       0.16743769 </v>
   <v>       0.50000000       0.25000000       0.16743769 </v>
   <v>       0.00000000       0.75000000       0.16743769 </v>
   <v>       0.50000000       0.75000000       0.16743769 </v>
   <v>       0.00000000       0.25000000       0.50077102 </v>
   <v>       0.50000000       0.25000000       0.50077102 </v>
   <v>       0.00000000       0.75000000       0.50077102 </v>
   <v>       0.50000000       0.75000000       0.50077102 </v>
   <v>       0.00000000       0.25000000       0.83410435 </v>
   <v>       0.50000000       0.25000000       0.83410435 </v>
   <v>       0.00000000       0.75000000       0.83410435 </v>
   <v>       0.50000000       0.75000000       0.83410435 </v>
   <v>       0.25000000       0.25000000       0.00076332 </v>
   <v>       0.75000000       0.25000000       0.00076332 </v>
   <v>       0.25000000       0.75000000       0.00076332 </v>
   <v>       0.75000000       0.75000000       0.00076332 </v>
   <v>       0.25000000       0.25000000       0.33409665 </v>
   <v>       0.75000000       0.25000000       0.33409665 </v>
   <v>       0.25000000       0.75000000       0.33409665 </v>
   <v>       0.75000000       0.75000000       0.33409665 </v>
   <v>       0.25000000       0.25000000       0.66742999 </v>
   <v>       0.75000000       0.25000000       0.66742999 </v>
   <v>       0.25000000       0.75000000       0.66742999 </v>
   <v>       0.75000000       0.75000000       0.66742999 </v>
  </varray>
 </structure>
 <calculation>
  <scstep>
   <time name="dav">  910.63  912.92</time>
   <time name="total">  913.97  916.28</time>
   <energy>
    <i name="alphaZ">   4890.97834259 </i>
    <i name="ewald"> -98842.96527171 </i>
    <i name="hartreedc"> -25789.29887874 </i>
    <i name="XCdc">   -889.86125330 </i>
    <i name="pawpsdc"> 106286.73805879 </i>
    <i name="pawaedc">-101298.59693205 </i>
    <i name="eentropy">     -0.04293366 </i>
    <i name="bandstr">  14366.16796842 </i>
    <i name="atom"> 111881.97810035 </i>
    <i name="e_fr_energy">  10605.09720068 </i>
    <i name="e_wo_entrp">  10605.14013434 </i>
    <i name="e_0_energy">  10605.11866751 </i>
   </energy>
  </scstep>
  <scstep>
   <time name="dav">  947.42  949.80</time>
   <time name="total">  947.43  949.80</time>
   <energy>
    <i name="e_fr_energy">    151.05595318 </i>
    <i name="e_wo_entrp">    151.06829668 </i>
    <i name="e_0_energy">    151.06212493 </i>
   </energy>
  </scstep>
  <scstep>
   <time name="dav">  994.81  997.30</time>
   <time name="total">  994.82  997.31</time>
   <energy>
    <i name="e_fr_energy">   -517.93701159 </i>
    <i name="e_wo_entrp">   -517.93087593 </i>
    <i name="e_0_energy">   -517.93394376 </i>
   </energy>
  </scstep>
  <scstep>
   <time name="dav">  964.76  967.18</time>
   <time name="total">  964.76  967.19</time>
   <energy>
    <i name="e_fr_energy">   -535.41638578 </i>
    <i name="e_wo_entrp">   -535.41092452 </i>
    <i name="e_0_energy">   -535.41365515 </i>
   </energy>
  </scstep>
  <scstep>
   <time name="dav">  986.12  988.77</time>
   <time name="total"> 1000.64 1003.33</time>
   <energy>
    <i name="e_fr_energy">   -535.67117459 </i>
    <i name="e_wo_entrp">   -535.66570550 </i>
    <i name="e_0_energy">   -535.66844005 </i>
   </energy>
  </scstep>
  <scstep>
   <time name="dav">  954.23  956.58</time>
   <time name="total">  972.25  974.65</time>
   <energy>
    <i name="e_fr_energy">   -504.98318046 </i>
    <i name="e_wo_entrp">   -504.96769023 </i>
    <i name="e_0_energy">   -504.97543535 </i>
   </energy>
  </scstep>
  <scstep>
   <time name="dav">  947.56  949.87</time>
   <time name="total">  965.10  967.47</time>
   <energy>
    <i name="e_fr_energy">   -505.65761706 </i>
    <i name="e_wo_entrp">   -505.64185331 </i>
    <i name="e_0_energy">   -505.64973518 </i>
   </energy>
  </scstep>
  <scstep>
   <time name="dav">  979.74  982.20</time>
   <time name="total">  998.71 1001.21</time>
   <energy>
    <i name="e_fr_energy">   -505.18195828 </i>
    <i name="e_wo_entrp">   -505.16734157 </i>
    <i name="e_0_energy">   -505.17464992 </i>
   </energy>
  </scstep>
  <scstep>
   <time name="dav">  953.63  956.02</time>
   <time name="total">  971.99  974.42</time>
   <energy>
    <i name="e_fr_energy">   -505.12628894 </i>
    <i name="e_wo_entrp">   -505.11106030 </i>
    <i name="e_0_energy">   -505.11867462 </i>
   </energy>
  </scstep>
  <scstep>
   <time name="dav">  960.11  962.51</time>
   <time name="total">  978.01  980.46</time>
   <energy>
    <i name="e_fr_energy">   -505.12841328 </i>
    <i name="e_wo_entrp">   -505.11312690 </i>
    <i name="e_0_energy">   -505.12077009 </i>
   </energy>
  </scstep>
  <scstep>
   <time name="dav">  961.74  964.15</time>
   <time name="total">  979.56  982.01</time>
   <energy>
    <i name="e_fr_energy">   -505.12828991 </i>
    <i name="e_wo_entrp">   -505.11307174 </i>
    <i name="e_0_energy">   -505.12068082 </i>
   </energy>
  </scstep>
  <scstep>
   <time name="dav">  965.07  967.55</time>
   <time name="total">  983.14  985.67</time>
   <energy>
    <i name="e_fr_energy">   -505.12824747 </i>
    <i name="e_wo_entrp">   -505.11300899 </i>
    <i name="e_0_energy">   -505.12062823 </i>
   </energy>
  </scstep>
  <scstep>
   <time name="dav"> 1008.33 1010.87</time>
   <time name="total"> 1026.42 1029.03</time>
   <energy>
    <i name="e_fr_energy">   -505.12824750 </i>
    <i name="e_wo_entrp">   -505.11301195 </i>
    <i name="e_0_energy">   -505.12062973 </i>
   </energy>
  </scstep>
  <scstep>
   <time name="dav">  952.57  954.94</time>
   <time name="total">  970.44  972.86</time>
   <energy>
    <i name="e_fr_energy">   -505.12824637 </i>
    <i name="e_wo_entrp">   -505.11301190 </i>
    <i name="e_0_energy">   -505.12062914 </i>
   </energy>
  </scstep>
  <scstep>
   <time name="dav">  969.53  971.94</time>
   <time name="total">  987.66  990.13</time>
   <energy>
    <i name="e_fr_energy">   -505.12824486 </i>
    <i name="e_wo_entrp">   -505.11301061 </i>
    <i name="e_0_energy">   -505.12062774 </i>
   </energy>
  </scstep>
  <scstep>
   <time name="dav">  878.29  880.55</time>
   <time name="total">  893.56  895.87</time>
   <energy>
    <i name="e_fr_energy">   -505.12824488 </i>
    <i name="e_wo_entrp">   -505.11301082 </i>
    <i name="e_0_energy">   -505.12062785 </i>
   </energy>
  </scstep>
  <scstep>
   <time name="dav">  413.76  414.78</time>
   <time name="total">  428.57  429.63</time>
   <energy>
    <i name="e_fr_energy">   -505.12824489 </i>
    <i name="e_wo_entrp">   -505.11301076 </i>
    <i name="e_0_energy">   -505.12062783 </i>
   </energy>
  </scstep>
  <scstep>
   <time name="dav">  545.31  546.69</time>
   <time name="total">  562.72  564.14</time>
   <energy>
    <i name="e_fr_energy">   -505.12824488 </i>
    <i name="e_wo_entrp">   -505.11301072 </i>
    <i name="e_0_energy">   -505.12062780 </i>
   </energy>
  </scstep>
  <scstep>
   <time name="dav">  594.13  595.62</time>
   <time name="total">  597.61  599.11</time>
   <energy>
    <i name="alphaZ">   4890.97834259 </i>
    <i name="ewald"> -98842.96527171 </i>
    <i name="hartreedc"> -24658.12392834 </i>
    <i name="XCdc">   -922.44779971 </i>
    <i name="pawpsdc"> 122252.83280036 </i>
    <i name="pawaedc">-117445.09499876 </i>
    <i name="eentropy">     -0.01523416 </i>
    <i name="bandstr">   2337.72974451 </i>
    <i name="atom"> 111881.97810035 </i>
    <i name="e_fr_energy">   -505.12824487 </i>
    <i name="e_wo_entrp">   -505.11301071 </i>
    <i name="e_0_energy">   -505.12062779 </i>
   </energy>
  </scstep>
  <structure>
   <crystal>
    <varray name="basis" >
     <v>      14.01039598       0.00139138       0.00000000 </v>
     <v>      -0.00150196      13.76691092       0.00000000 </v>
     <v>       0.00000000       0.00000000      14.55019386 </v>
    </varray>
    <i name="volume">   2806.43958022 </i>
    <varray name="rec_basis" >
     <v>       0.07137557       0.00000779       0.00000000 </v>
     <v>      -0.00000721       0.07263794       0.00000000 </v>
     <v>       0.00000000       0.00000000       0.06872761 </v>
    </varray>
   </crystal>
   <varray name="positions" >
    <v>       0.42987898       0.17167077       0.33247735 </v>
    <v>       0.92987898       0.17167077       0.33247735 </v>
    <v>       0.42987898       0.67167077       0.33247735 </v>
    <v>       0.92987898       0.67167077       0.33247735 </v>
    <v>       0.42987898       0.17167077       0.66581068 </v>
    <v>       0.92987898       0.17167077       0.66581068 </v>
    <v>       0.42987898       0.67167077       0.66581068 </v>
    <v>       0.92987898       0.67167077       0.66581068 </v>
    <v>       0.42987898       0.17167077       0.99914401 </v>
    <v>       0.92987898       0.17167077       0.99914401 </v>
    <v>       0.42987898       0.67167077       0.99914401 </v>
    <v>       0.92987898       0.67167077       0.99914401 </v>
    <v>       0.07012102       0.32832923       0.33247735 </v>
    <v>       0.57012102       0.32832923       0.33247735 </v>
    <v>       0.07012102       0.82832923       0.33247735 </v>
    <v>       0.57012102       0.82832923       0.33247735 </v>
    <v>       0.07012102       0.32832923       0.66581068 </v>
    <v>       0.57012102       0.32832923       0.66581068 </v>
    <v>       0.07012102       0.82832923       0.66581068 </v>
    <v>       0.57012102       0.82832923       0.66581068 </v>
    <v>       0.07012102       0.32832923       0.99914401 </v>
    <v>       0.57012102       0.32832923       0.99914401 </v>
    <v>       0.07012102       0.82832923       0.99914401 </v>
    <v>       0.57012102       0.82832923       0.99914401 </v>
    <v>       0.31940677       0.42167367       0.05641075 </v>
    <v>       0.82012053       0.42167367       0.05641075 </v>
    <v>       0.32012053       0.92167367       0.05641075 </v>
    <v>       0.82012053       0.92167367       0.05641075 </v>
    <v>       0.32012053       0.42167367       0.38974408 </v>
    <v>       0.82012053       0.42167367       0.38974408 </v>
    <v>       0.32012053       0.92167367       0.38974408 </v>
    <v>       0.82012053       0.92167367       0.38974408 </v>
    <v>       0.32012053       0.42167367       0.72307741 </v>
    <v>       0.82012053       0.42167367       0.72307741 </v>
    <v>       0.32012053       0.92167367       0.72307741 </v>
    <v>       0.82012053       0.92167367       0.72307741 </v>
    <v>       0.17987947       0.07832633       0.05641075 </v>
    <v>       0.67987947       0.07832633       0.05641075 </v>
    <v>       0.17987947       0.57832633       0.05641075 </v>
    <v>       0.67987947       0.57832633       0.05641075 </v>
    <v>       0.17987947       0.07832633       0.38974408 </v>
    <v>       0.67987947       0.07832633       0.38974408 </v>
    <v>       0.17987947       0.57832633       0.38974408 </v>
    <v>       0.67987947       0.57832633       0.38974408 </v>
    <v>       0.17987947       0.07832633       0.72307741 </v>
    <v>       0.67987947       0.07832633       0.72307741 </v>
    <v>       0.17987947       0.57832633       0.72307741 </v>
    <v>       0.67987947       0.57832633       0.72307741 </v>
    <v>       0.17987776       0.32832369       0.16580856 </v>
    <v>       0.67987776       0.32832369       0.16580856 </v>
    <v>       0.17987776       0.82832369       0.16580856 </v>
    <v>       0.67987776       0.82832369       0.16580856 </v>
    <v>       0.17987776       0.32832369       0.49914189 </v>
    <v>       0.67987776       0.32832369       0.49914189 </v>
    <v>       0.17987776       0.82832369       0.49914189 </v>
    <v>       0.67987776       0.82832369       0.49914189 </v>
    <v>       0.17987776       0.32832369       0.83247522 </v>
    <v>       0.67987776       0.32832369       0.83247522 </v>
    <v>       0.17987776       0.82832369       0.83247522 </v>
    <v>       0.67987776       0.82832369       0.83247522 </v>
    <v>       0.32012224       0.17167631       0.16580856 </v>
    <v>       0.82012224       0.17167631       0.16580856 </v>
    <v>       0.32012224       0.67167631       0.16580856 </v>
    <v>       0.82012224       0.67167631       0.16580856 </v>
    <v>       0.32012224       0.17167631       0.49914189 </v>
    <v>       0.82012224       0.17167631       0.49914189 </v>
    <v>       0.32012224       0.67167631       0.49914189 </v>
    <v>       0.82012224       0.67167631       0.49914189 </v>
    <v>       0.32012224       0.17167631       0.83247522 </v>
    <v>       0.82012224       0.17167631       0.83247522 </v>
    <v>       0.32012224       0.67167631       0.83247522 </v>
    <v>       0.82012224       0.67167631       0.83247522 </v>
    <v>       0.42987656       0.42167494       0.22308000 </v>
    <v>       0.92987656       0.42167494       0.22308000 </v>
    <v>       0.42987656       0.92167494       0.22308000 </v>
    <v>       0.92987656       0.92167494       0.22308000 </v>
    <v>       0.42987656       0.42167494       0.55641333 </v>
    <v>       0.92987656       0.42167494       0.55641333 </v>
    <v>       0.42987656       0.92167494       0.55641333 </v>
    <v>       0.92987656       0.92167494       0.55641333 </v>
    <v>       0.42987656       0.42167494       0.88974666 </v>
    <v>       0.92987656       0.42167494       0.88974666 </v>
    <v>       0.42987656       0.92167494       0.88974666 </v>
    <v>       0.92987656       0.92167494       0.88974666 </v>
    <v>       0.07012344       0.07832506       0.22308000 </v>
    <v>       0.57012344       0.07832506       0.22308000 </v>
    <v>       0.07012344       0.57832506       0.22308000 </v>
    <v>       0.57012344       0.57832506       0.22308000 </v>
    <v>       0.07012344       0.07832506       0.55641333 </v>
    <v>       0.57012344       0.07832506       0.55641333 </v>
    <v>       0.07012344       0.57832506       0.55641333 </v>
    <v>       0.57012344       0.57832506       0.55641333 </v>
    <v>       0.07012344       0.07832506       0.88974666 </v>
    <v>       0.57012344       0.07832506       0.88974666 </v>
    <v>       0.07012344       0.57832506       0.88974666 </v>
    <v>       0.57012344       0.57832506       0.88974666 </v>
    <v>       0.00000000       0.00000000       0.05479365 </v>
    <v>       0.50000000       0.00000000       0.05479365 </v>
    <v>       0.00000000       0.50000000       0.05479365 </v>
    <v>       0.50000000       0.50000000       0.05479365 </v>
    <v>       0.00000000       0.00000000       0.38812698 </v>
    <v>       0.50000000       0.00000000       0.38812698 </v>
    <v>       0.00000000       0.50000000       0.38812698 </v>
    <v>       0.50000000       0.50000000       0.38812698 </v>
    <v>       0.00000000       0.00000000       0.72146032 </v>
    <v>       0.50000000       0.00000000       0.72146032 </v>
    <v>       0.00000000       0.50000000       0.72146032 </v>
    <v>       0.50000000       0.50000000       0.72146032 </v>
    <v>       0.25000000       0.00000000       0.22145206 </v>
    <v>       0.75000000       0.00000000       0.22145206 </v>
    <v>       0.25000000       0.50000000       0.22145206 </v>
    <v>       0.75000000       0.50000000       0.22145206 </v>
    <v>       0.25000000       0.00000000       0.55478539 </v>
    <v>       0.75000000       0.00000000       0.55478539 </v>
    <v>       0.25000000       0.50000000       0.55478539 </v>
    <v>       0.75000000       0.50000000       0.55478539 </v>
    <v>       0.25000000       0.00000000       0.88811873 </v>
    <v>       0.75000000       0.00000000       0.88811873 </v>
    <v>       0.25000000       0.50000000       0.88811873 </v>
    <v>       0.75000000       0.50000000       0.88811873 </v>
    <v>       0.00000000       0.25000000       0.16743769 </v>
    <v>       0.50000000       0.25000000       0.16743769 </v>
    <v>       0.00000000       0.75000000       0.16743769 </v>
    <v>       0.50000000       0.75000000       0.16743769 </v>
    <v>       0.00000000       0.25000000       0.50077102 </v>
    <v>       0.50000000       0.25000000       0.50077102 </v>
    <v>       0.00000000       0.75000000       0.50077102 </v>
    <v>       0.50000000       0.75000000       0.50077102 </v>
    <v>       0.00000000       0.25000000       0.83410435 </v>
    <v>       0.50000000       0.25000000       0.83410435 </v>
    <v>       0.00000000       0.75000000       0.83410435 </v>
    <v>       0.50000000       0.75000000       0.83410435 </v>
    <v>       0.25000000       0.25000000       0.00076332 </v>
    <v>       0.75000000       0.25000000       0.00076332 </v>
    <v>       0.25000000       0.75000000       0.00076332 </v>
    <v>       0.75000000       0.75000000       0.00076332 </v>
    <v>       0.25000000       0.25000000       0.33409665 </v>
    <v>       0.75000000       0.25000000       0.33409665 </v>
    <v>       0.25000000       0.75000000       0.33409665 </v>
    <v>       0.75000000       0.75000000       0.33409665 </v>
    <v>       0.25000000       0.25000000       0.66742999 </v>
    <v>       0.75000000       0.25000000       0.66742999 </v>
    <v>       0.25000000       0.75000000       0.66742999 </v>
    <v>       0.75000000       0.75000000       0.66742999 </v>
   </varray>
  </structure>
  <varray name="forces" >
   <v>       0.00007678       0.00009088      -0.00010011 </v>
   <v>      -0.00008183       0.00003987       0.00000360 </v>
   <v>       0.00007594       0.00005895      -0.00004702 </v>
   <v>      -0.00008182       0.00009769      -0.00004726 </v>
   <v>       0.00002196       0.00006299      -0.00002254 </v>
   <v>      -0.00007504       0.00003914      -0.00006021 </v>
   <v>       0.00002196       0.00004055       0.00004446 </v>
   <v>      -0.00007484       0.00010445      -0.00003364 </v>
   <v>       0.00011995       0.00018642       0.00000501 </v>
   <v>      -0.00013657       0.00002019      -0.00005142 </v>
   <v>       0.00011980      -0.00080903       0.00030541 </v>
   <v>      -0.00013691       0.00009259       0.00000514 </v>
   <v>      -0.00001534      -0.00006944       0.00001662 </v>
   <v>      -0.00001416      -0.00004146      -0.00002881 </v>
   <v>      -0.00002780      -0.00006409      -0.00002730 </v>
   <v>      -0.00002765      -0.00010665      -0.00008449 </v>
   <v>      -0.00002851      -0.00006784      -0.00004568 </v>
   <v>      -0.00002860      -0.00005734      -0.00000383 </v>
   <v>      -0.00003415      -0.00008468      -0.00000670 </v>
   <v>      -0.00003393      -0.00011801       0.00000355 </v>
   <v>      -0.00051189      -0.00000948      -0.00013118 </v>
   <v>      -0.00051122       0.00092087       0.00022687 </v>
   <v>       0.00000821      -0.00005040      -0.00004780 </v>
   <v>       0.00000852      -0.00013679      -0.00000866 </v>
   <v>       0.03271727       0.01084622      -0.00203505 </v>
   <v>      -0.00017709       0.00008750       0.00006159 </v>
   <v>       0.00004958       0.00006927       0.00011362 </v>
   <v>      -0.00001557      -0.00003732       0.00003338 </v>
   <v>       0.00039203      -0.00030659       0.00022632 </v>
   <v>      -0.00013503       0.00008002      -0.00004902 </v>
   <v>       0.00005416       0.00011144       0.00009659 </v>
   <v>      -0.00000415       0.00002266       0.00003934 </v>
   <v>       0.00039214      -0.00028437      -0.00007230 </v>
   <v>      -0.00013511       0.00006673       0.00019471 </v>
   <v>       0.00005427       0.00006538       0.00004349 </v>
   <v>      -0.00000423       0.00002958       0.00006107 </v>
   <v>      -0.00029055      -0.00037012       0.00021816 </v>
   <v>      -0.00004106      -0.00000284       0.00001631 </v>
   <v>      -0.00496452       0.00611486      -0.00018435 </v>
   <v>      -0.00250037      -0.00062191      -0.00006017 </v>
   <v>      -0.00000744      -0.00004161       0.00004645 </v>
   <v>      -0.00003375      -0.00001160       0.00004323 </v>
   <v>      -0.00052149       0.00052333       0.00078848 </v>
   <v>      -0.00010753      -0.00003700      -0.00003278 </v>
   <v>      -0.00000755       0.00001522       0.00005441 </v>
   <v>      -0.00003383      -0.00001348       0.00004251 </v>
   <v>      -0.00052233       0.00046058      -0.00061091 </v>
   <v>      -0.00010751      -0.00002603       0.00015408 </v>
   <v>      -0.00832165      -0.00583312       0.00705953 </v>
   <v>      -0.00003257       0.00009414      -0.00001710 </v>
   <v>       0.00000809       0.00000760      -0.00000096 </v>
   <v>      -0.00010743      -0.00008984      -0.00004332 </v>
   <v>      -0.00004155      -0.00003613       0.00000661 </v>
   <v>      -0.00003354      -0.00000885      -0.00003250 </v>
   <v>      -0.00001417       0.00001216      -0.00001584 </v>
   <v>      -0.00003868      -0.00000905      -0.00001920 </v>
   <v>      -0.00058640      -0.00049624      -0.00085700 </v>
   <v>      -0.00012122       0.00005517       0.00006530 </v>
   <v>      -0.00011056      -0.00003644      -0.00000645 </v>
   <v>      -0.00006786      -0.00001471       0.00001263 </v>
   <v>       0.00045565      -0.00013725       0.00010834 </v>
   <v>      -0.00014194      -0.00000956      -0.00003285 </v>
   <v>       0.00045589       0.00021896      -0.00004793 </v>
   <v>      -0.00014220      -0.00012954      -0.00010619 </v>
   <v>       0.00003100      -0.00001262       0.00002506 </v>
   <v>      -0.00004643       0.00000924       0.00000318 </v>
   <v>       0.00003076       0.00002452      -0.00003074 </v>
   <v>      -0.00004650       0.00000524       0.00000255 </v>
   <v>       0.00011097      -0.00008959      -0.00015344 </v>
   <v>      -0.00008932       0.00002224       0.00000689 </v>
   <v>       0.00011120       0.00036805      -0.00005978 </v>
   <v>      -0.00008885      -0.00006407       0.00000216 </v>
   <v>      -0.00236485       0.00040947      -0.00770023 </v>
   <v>      -0.00022614       0.00006962       0.00005466 </v>
   <v>       0.00007614      -0.00012831      -0.00003196 </v>
   <v>      -0.00003226       0.00003281       0.00002928 </v>
   <v>       0.00015738       0.00007567       0.00000791 </v>
   <v>      -0.00006339      -0.00000539       0.00001261 </v>
   <v>       0.00004772       0.00001599       0.00000873 </v>
   <v>      -0.00001917       0.00002576       0.00002447 </v>
   <v>      -0.00236642       0.00061627       0.00772685 </v>
   <v>      -0.00022617       0.00002541      -0.00007769 </v>
   <v>       0.00007654      -0.00004097       0.00001489 </v>
   <v>      -0.00003225       0.00001569       0.00001990 </v>
   <v>      -0.00004735      -0.00006702       0.00003238 </v>
   <v>      -0.00005715       0.00007244      -0.00001231 </v>
   <v>      -0.00045429       0.00000312       0.00014611 </v>
   <v>      -0.00041687      -0.00042233      -0.00049474 </v>
   <v>      -0.00003515      -0.00001209       0.00002032 </v>
   <v>      -0.00003508      -0.00003165       0.00001738 </v>
   <v>      -0.00014673      -0.00002372       0.00002777 </v>
   <v>      -0.00014577      -0.00012580       0.00003661 </v>
   <v>      -0.00005764      -0.00007192       0.00000435 </v>
   <v>      -0.00004719       0.00001794       0.00003920 </v>
   <v>      -0.00041885       0.00006433      -0.00015896 </v>
   <v>      -0.00045180      -0.00034772       0.00088021 </v>
   <v>      -0.00000180       0.00006066      -0.00006591 </v>
   <v>      -0.00002221       0.00007946      -0.00017796 </v>
   <v>      -0.00019943       0.00033434      -0.00005948 </v>
   <v>      -0.01104449      -0.00564651      -0.00073651 </v>
   <v>       0.00006012       0.00004301      -0.00010425 </v>
   <v>       0.00001540       0.00004260      -0.00000949 </v>
   <v>       0.00043453       0.00018916      -0.00007780 </v>
   <v>       0.00005910       0.00016859       0.00029125 </v>
   <v>       0.00002987       0.00004282      -0.00009474 </v>
   <v>       0.00003038       0.00008099      -0.00016403 </v>
   <v>       0.00046691       0.00013116      -0.00005332 </v>
   <v>       0.00000658       0.00019988      -0.00047274 </v>
   <v>       0.00001069      -0.00001509       0.00003042 </v>
   <v>       0.00005293      -0.00001349       0.00003221 </v>
   <v>       0.00154569       0.00224057       0.00199637 </v>
   <v>       0.00077985      -0.00039806       0.00037198 </v>
   <v>      -0.00004982      -0.00006510      -0.00001845 </v>
   <v>       0.00000234      -0.00005055       0.00001460 </v>
   <v>       0.00011584      -0.00010099       0.00002291 </v>
   <v>       0.00021381      -0.00010204      -0.00000271 </v>
   <v>       0.00000274       0.00026447       0.00022151 </v>
   <v>       0.00000069      -0.00004103      -0.00001409 </v>
   <v>       0.00053148       0.00045829      -0.00165743 </v>
   <v>       0.00086059      -0.00029858      -0.00034802 </v>
   <v>       0.00020182       0.00013368       0.00002821 </v>
   <v>      -0.00053662       0.00055225      -0.00031165 </v>
   <v>       0.00010083       0.00002062      -0.00007422 </v>
   <v>      -0.00003674       0.00060114       0.00021050 </v>
   <v>       0.00003781       0.00007181      -0.00001079 </v>
   <v>      -0.00001347       0.00004896      -0.00007770 </v>
   <v>       0.00009861       0.00005558      -0.00004231 </v>
   <v>       0.00004970       0.00012318      -0.00005377 </v>
   <v>       0.00016584       0.00008394       0.00000415 </v>
   <v>      -0.00008016       0.00029362       0.00027642 </v>
   <v>       0.00010897       0.00000012      -0.00010023 </v>
   <v>       0.00010183       0.00019043      -0.00023881 </v>
   <v>      -0.00116892      -0.00978069      -0.00452986 </v>
   <v>       0.00016173      -0.00008274       0.00006945 </v>
   <v>      -0.00008489      -0.00001104      -0.00008212 </v>
   <v>       0.00030399       0.00002182       0.00014264 </v>
   <v>      -0.00017193       0.00005096       0.00007350 </v>
   <v>       0.00004850      -0.00012182       0.00003222 </v>
   <v>      -0.00012913      -0.00041150      -0.00002853 </v>
   <v>       0.00008160      -0.00004834       0.00010316 </v>
   <v>      -0.00002510      -0.00002002      -0.00008113 </v>
   <v>       0.00011350      -0.00007365      -0.00002582 </v>
   <v>       0.00010335      -0.00015038       0.00020217 </v>
   <v>       0.00009798      -0.00004970       0.00004033 </v>
  </varray>
  <varray name="stress" >
   <v>      -0.17204454      -0.00512031      -0.00478136 </v>
   <v>      -0.00512031      -0.13368441       0.00118696 </v>
   <v>      -0.00478141       0.00118691      -0.16028639 </v>
  </varray>
  <energy>
   <i name="e_fr_energy">   -505.12824487 </i>
   <i name="e_wo_entrp">   -505.12062779 </i>
   <i name="e_0_energy">     -0.01523416 </i>
  </energy>
  <time name="totalsc">18655.9618703.39</time>
  <eigenvalues>
   <array>
    <dimension dim="1">band</dimension>
    <dimension dim="2">kpoint</dimension>
    <dimension dim="3">spin</dimension>
    <field>eigene</field>
    <field>occ</field>
    <set>
     <set comment="spin 1">
      <set comment="kpoint 1">
       <r>   -7.4639    1.0000 </r>
       <r>   -7.2296    1.0000 </r>
       <r>   -7.2294    1.0000 </r>
       <r>   -7.2160    1.0000 </r>
       <r>   -7.2154    1.0000 </r>
       <r>   -7.1644    1.0000 </r>
       <r>   -7.1643    1.0000 </r>
       <r>   -7.0699    1.0000 </r>
       <r>   -7.0697    1.0000 </r>
       <r>   -7.0695    1.0000 </r>
       <r>   -7.0689    1.0000 </r>
       <r>   -7.0093    1.0000 </r>
       <r>   -7.0093    1.0000 </r>
       <r>   -7.0090    1.0000 </r>
       <r>   -7.0087    1.0000 </r>
       <r>   -6.9942    1.0000 </r>
       <r>   -6.9941    1.0000 </r>
       <r>   -6.9938    1.0000 </r>
       <r>   -6.9933    1.0000 </r>
       <r>   -6.9476    1.0000 </r>
       <r>   -6.9353    1.0000 </r>
       <r>   -6.9349    1.0000 </r>
       <r>   -6.9196    1.0000 </r>
       <r>   -6.9195    1.0000 </r>
       <r>   -6.9193    1.0000 </r>
       <r>   -6.9191    1.0000 </r>
       <r>   -6.9191    1.0000 </r>
       <r>   -6.9190    1.0000 </r>
       <r>   -6.9190    1.0000 </r>
       <r>   -6.9180    1.0000 </r>
       <r>   -6.8369    1.0000 </r>
       <r>   -6.8368    1.0000 </r>
       <r>   -6.8366    1.0000 </r>
       <r>   -6.8362    1.0000 </r>
       <r>   -6.8239    1.0000 </r>
       <r>   -6.8181    1.0000 </r>
       <r>   -6.8179    1.0000 </r>
       <r>   -6.7728    1.0000 </r>
       <r>   -6.7725    1.0000 </r>
       <r>   -6.7673    1.0000 </r>
       <r>   -6.7671    1.0000 </r>
       <r>   -6.7669    1.0000 </r>
       <r>   -6.7663    1.0000 </r>
       <r>   -6.7550    1.0000 </r>
       <r>   -6.7544    1.0000 </r>
       <r>   -6.7402    1.0000 </r>
       <r>   -6.7397    1.0000 </r>
       <r>   -6.6844    1.0000 </r>
       <r>   -0.3460    1.0000 </r>
       <r>    0.0940    1.0000 </r>
       <r>    0.0941    1.0000 </r>
       <r>    0.0941    1.0000 </r>
       <r>    0.0942    1.0000 </r>
       <r>    0.0943    1.0000 </r>
       <r>    0.0943    1.0000 </r>
       <r>    0.0945    1.0000 </r>
       <r>    0.0946    1.0000 </r>
       <r>    0.1077    1.0000 </r>
       <r>    0.1078    1.0000 </r>
       <r>    0.1079    1.0000 </r>
       <r>    0.1080    1.0000 </r>
       <r>    0.1520    1.0000 </r>
       <r>    0.1520    1.0000 </r>
       <r>    0.1523    1.0000 </r>
       <r>    0.1527    1.0000 </r>
       <r>    0.1579    1.0000 </r>
       <r>    0.1582    1.0000 </r>
       <r>    0.1593    1.0000 </r>
       <r>    0.1601    1.0000 </r>
       <r>    0.2006    1.0000 </r>
       <r>    0.2008    1.0000 </r>
       <r>    0.2010    1.0000 </r>
       <r>    0.2011    1.0000 </r>
       <r>    0.2366    1.0000 </r>
       <r>    0.2370    1.0000 </r>
       <r>    0.2568    1.0000 </r>
       <r>    0.2571    1.0000 </r>
       <r>    0.2822    1.0000 </r>
       <r>    0.3006    1.0000 </r>
       <r>    0.3009    1.0000 </r>
       <r>    0.3229    1.0000 </r>
       <r>    0.4471    1.0000 </r>
       <r>    0.4474    1.0000 </r>
       <r>    0.4508    1.0000 </r>
       <r>    0.4511    1.0000 </r>
       <r>    0.4572    1.0000 </r>
       <r>    0.4575    1.0000 </r>
       <r>    0.4652    1.0000 </r>
       <r>    0.4655    1.0000 </r>
       <r>    0.4658    1.0000 </r>
       <r>    0.4661    1.0000 </r>
       <r>    0.4696    1.0000 </r>
       <r>    0.4700    1.0000 </r>
       <r>    0.4703    1.0000 </r>
       <r>    0.4703    1.0000 </r>
       <r>    0.5111    1.0000 </r>
       <r>    0.5115    1.0000 </r>
       <r>    0.5260    1.0000 </r>
       <r>    0.5262    1.0000 </r>
       <r>    0.5264    1.0000 </r>
       <r>    0.5269    1.0000 </r>
       <r>    0.5970    1.0000 </r>
       <r>    0.6017    1.0000 </r>
       <r>    0.6548    1.0000 </r>
       <r>    0.6549    1.0000 </r>
       <r>    0.6552    1.0000 </r>
       <r>    0.6554    1.0000 </r>
       <r>    0.6614    1.0000 </r>
       <r>    0.6617    1.0000 </r>
       <r>    0.6876    1.0000 </r>
       <r>    0.6878    1.0000 </r>
       <r>    0.7016    1.0000 </r>
       <r>    0.7019    1.0000 </r>
       <r>    0.7019    1.0000 </r>
       <r>    0.7024    1.0000 </r>
       <r>    0.7203    1.0000 </r>
       <r>    0.7209    1.0000 </r>
       <r>    0.7408    1.0000 </r>
       <r>    0.7411    1.0000 </r>
       <r>    0.7484    1.0000 </r>
       <r>    0.8021    1.0000 </r>
       <r>    0.8141    1.0000 </r>
       <r>    0.8143    1.0000 </r>
       <r>    0.8146    1.0000 </r>
       <r>    0.8147    1.0000 </r>
       <r>    0.8298    1.0000 </r>
       <r>    0.8301    1.0000 </r>
       <r>    0.8305    1.0000 </r>
       <r>    0.8306    1.0000 </r>
       <r>    0.8515    1.0000 </r>
       <r>    0.8519    1.0000 </r>
       <r>    0.8519    1.0000 </r>
       <r>    0.8520    1.0000 </r>
       <r>    0.8521    1.0000 </r>
       <r>    0.8521    1.0000 </r>
       <r>    0.8524    1.0000 </r>
       <r>    0.8527    1.0000 </r>
       <r>    0.8949    1.0000 </r>
       <r>    0.8975    1.0000 </r>
       <r>    0.8979    1.0000 </r>
       <r>    0.8993    1.0000 </r>
       <r>    0.8994    1.0000 </r>
       <r>    0.8994    1.0000 </r>
       <r>    0.8998    1.0000 </r>
       <r>    0.9202    1.0000 </r>
       <r>    0.9455    1.0000 </r>
       <r>    0.9460    1.0000 </r>
       <r>    1.0707    1.0000 </r>
       <r>    1.0709    1.0000 </r>
       <r>    1.0710    1.0000 </r>
       <r>    1.0711    1.0000 </r>
       <r>    1.0845    1.0000 </r>
       <r>    1.0846    1.0000 </r>
       <r>    1.0847    1.0000 </r>
       <r>    1.0848    1.0000 </r>
       <r>    1.0850    1.0000 </r>
       <r>    1.0852    1.0000 </r>
       <r>    1.1009    1.0000 </r>
       <r>    1.1010    1.0000 </r>
       <r>    1.1457    1.0000 </r>
       <r>    1.1458    1.0000 </r>
       <r>    1.1459    1.0000 </r>
       <r>    1.1461    1.0000 </r>
       <r>    1.1616    1.0000 </r>
       <r>    1.1618    1.0000 </r>
       <r>    1.1619    1.0000 </r>
       <r>    1.1622    1.0000 </r>
       <r>    1.1756    1.0000 </r>
       <r>    1.1760    1.0000 </r>
       <r>    1.1996    1.0000 </r>
       <r>    1.2241    1.0000 </r>
       <r>    1.2243    1.0000 </r>
       <r>    1.2296    1.0000 </r>
       <r>    1.2298    1.0000 </r>
       <r>    1.2298    1.0000 </r>
       <r>    1.2299    1.0000 </r>
       <r>    1.2300    1.0000 </r>
       <r>    1.2300    1.0000 </r>
       <r>    1.2301    1.0000 </r>
       <r>    1.2304    1.0000 </r>
       <r>    1.2370    1.0000 </r>
       <r>    1.2370    1.0000 </r>
       <r>    1.3412    1.0000 </r>
       <r>    1.3414    1.0000 </r>
       <r>    1.3415    1.0000 </r>
       <r>    1.3416    1.0000 </r>
       <r>    1.3652    1.0000 </r>
       <r>    1.3664    1.0000 </r>
       <r>    1.3664    1.0000 </r>
       <r>    1.3671    1.0000 </r>
       <r>    1.3672    1.0000 </r>
       <r>    1.3733    1.0000 </r>
       <r>    1.3734    1.0000 </r>
       <r>    1.3735    1.0000 </r>
       <r>    1.3736    1.0000 </r>
[...]
       <r>    -1.7773     0.0000    96.0000 </r>
       <r>    -1.7057     0.0000    96.0000 </r>
       <r>    -1.6340     0.0000    96.0000 </r>
       <r>    -1.5624     0.0000    96.0000 </r>
       <r>    -1.4907     0.0000    96.0000 </r>
       <r>    -1.4191     0.0000    96.0000 </r>
       <r>    -1.3474     0.0000    96.0000 </r>
       <r>    -1.2758     0.0000    96.0000 </r>
       <r>    -1.2041     0.0000    96.0000 </r>
       <r>    -1.1325     0.0000    96.0000 </r>
       <r>    -1.0608     0.0000    96.0000 </r>
       <r>    -0.9891     0.0000    96.0000 </r>
       <r>    -0.9175     0.0000    96.0000 </r>
       <r>    -0.8458     0.0000    96.0000 </r>
       <r>    -0.7742     0.0000    96.0000 </r>
       <r>    -0.7025     0.0000    96.0000 </r>
       <r>    -0.6309     0.0000    96.0000 </r>
       <r>    -0.5592     0.0000    96.0000 </r>
       <r>    -0.4876     0.0001    96.0000 </r>
       <r>    -0.4159     0.0835    96.0060 </r>
       <r>    -0.3443     1.7287    96.1299 </r>
       <r>    -0.2726     1.8881    96.2651 </r>
       <r>    -0.2010     8.1175    96.8468 </r>
       <r>    -0.1293    15.3988    97.9501 </r>
       <r>    -0.0577    23.9304    99.6648 </r>
       <r>     0.0140    50.8302   103.3069 </r>
       <r>     0.0856   101.3276   110.5672 </r>
       <r>     0.1573   188.2618   124.0565 </r>
       <r>     0.2289   204.8123   138.7317 </r>
       <r>     0.3006   274.3286   158.3879 </r>
       <r>     0.3722   194.5862   172.3304 </r>
       <r>     0.4439   125.3345   181.3108 </r>
       <r>     0.5155   140.7280   191.3942 </r>
       <r>     0.5872   124.3257   200.3024 </r>
       <r>     0.6588   165.1240   212.1339 </r>
       <r>     0.7305   244.9319   229.6837 </r>
       <r>     0.8021   229.2437   246.1095 </r>
       <r>     0.8738   290.6562   266.9356 </r>
       <r>     0.9455   286.2290   287.4444 </r>
       <r>     1.0171   147.4699   298.0109 </r>
       <r>     1.0888   182.9352   311.1186 </r>
       <r>     1.1604   226.5421   327.3508 </r>
       <r>     1.2321   229.0470   343.7624 </r>
       <r>     1.3037   297.8703   365.1054 </r>
       <r>     1.3754   305.9127   387.0246 </r>
       <r>     1.4470   391.1257   415.0495 </r>
       <r>     1.5187   355.6695   440.5339 </r>
       <r>     1.5903   372.7349   467.2411 </r>
       <r>     1.6620   365.5089   493.4305 </r>
       <r>     1.7336   391.1122   521.4545 </r>
       <r>     1.8053   372.6888   548.1584 </r>
       <r>     1.8769   357.9458   573.8059 </r>
       <r>     1.9486   388.5250   601.6444 </r>
       <r>     2.0202   414.6319   631.3536 </r>
       <r>     2.0919   379.0083   658.5103 </r>
       <r>     2.1635   360.9997   684.3766 </r>
       <r>     2.2352   374.8953   711.2386 </r>
       <r>     2.3068   397.4791   739.7187 </r>
       <r>     2.3785   338.6487   763.9836 </r>
       <r>     2.4501   296.5067   785.2288 </r>
       <r>     2.5218   338.8017   809.5046 </r>
       <r>     2.5934   354.4800   834.9038 </r>
       <r>     2.6651   408.5128   864.1746 </r>
       <r>     2.7368   374.7656   891.0272 </r>
       <r>     2.8084   378.9558   918.1801 </r>
       <r>     2.8801   431.4233   949.0925 </r>
       <r>     2.9517   498.4254   984.8056 </r>
       <r>     3.0234   497.5639  1020.4570 </r>
       <r>     3.0950   370.8077  1047.0261 </r>
       <r>     3.1667   234.5463  1063.8318 </r>
       <r>     3.2383   205.4221  1078.5507 </r>
       <r>     3.3100   170.9680  1090.8009 </r>
       <r>     3.3816   138.6682  1100.7367 </r>
       <r>     3.4533   119.1377  1109.2732 </r>
       <r>     3.5249   157.1241  1120.5314 </r>
       <r>     3.5966   163.6320  1132.2560 </r>
       <r>     3.6682   101.3883  1139.5206 </r>
       <r>     3.7399    96.7677  1146.4542 </r>
       <r>     3.8115    65.4182  1151.1416 </r>
       <r>     3.8832    72.0356  1156.3031 </r>
       <r>     3.9548    73.5252  1161.5713 </r>
       <r>     4.0265    65.0792  1166.2343 </r>
       <r>     4.0981    92.3897  1172.8542 </r>
       <r>     4.1698   102.9310  1180.2294 </r>
       <r>     4.2414   114.7606  1188.4523 </r>
       <r>     4.3131    75.2833  1193.8465 </r>
       <r>     4.3847    72.8567  1199.0668 </r>
       <r>     4.4564    65.3345  1203.7481 </r>
       <r>     4.5280    91.9687  1210.3379 </r>
       <r>     4.5997    93.3507  1217.0266 </r>
       <r>     4.6714   102.3523  1224.3604 </r>
       <r>     4.7430   139.1781  1234.3327 </r>
       <r>     4.8147   138.4064  1244.2498 </r>
       <r>     4.8863    73.0945  1249.4872 </r>
       <r>     4.9580    53.4873  1253.3196 </r>
       <r>     5.0296    55.0320  1257.2628 </r>
       <r>     5.1013    86.6625  1263.4723 </r>
       <r>     5.1729   143.9070  1273.7835 </r>
       <r>     5.2446   109.4514  1281.6260 </r>
       <r>     5.3162    63.2734  1286.1596 </r>
       <r>     5.3879    59.2997  1290.4085 </r>
       <r>     5.4595    69.3202  1295.3755 </r>
       <r>     5.5312    72.3729  1300.5611 </r>
       <r>     5.6028    76.5086  1306.0431 </r>
       <r>     5.6745   110.0055  1313.9252 </r>
       <r>     5.7461   132.4908  1323.4185 </r>
       <r>     5.8178    73.0311  1328.6513 </r>
       <r>     5.8894    64.4295  1333.2678 </r>
       <r>     5.9611    58.6616  1337.4710 </r>
       <r>     6.0327    30.6109  1339.6643 </r>
       <r>     6.1044    18.9497  1341.0221 </r>
       <r>     6.1760    21.5384  1342.5654 </r>
       <r>     6.2477    16.9335  1343.7787 </r>
       <r>     6.3193     9.0787  1344.4292 </r>
       <r>     6.3910     0.9830  1344.4996 </r>
       <r>     6.4627     0.1156  1344.5079 </r>
       <r>     6.5343     1.8698  1344.6419 </r>
       <r>     6.6060     1.7917  1344.7703 </r>
       <r>     6.6776     5.2578  1345.1470 </r>
       <r>     6.7493    22.7625  1346.7780 </r>
       <r>     6.8209    26.1148  1348.6491 </r>
       <r>     6.8926    11.3052  1349.4592 </r>
       <r>     6.9642     6.3105  1349.9113 </r>
       <r>     7.0359     8.9756  1350.5545 </r>
       <r>     7.1075     4.6659  1350.8888 </r>
       <r>     7.1792    21.3166  1352.4162 </r>
       <r>     7.2508    23.9206  1354.1301 </r>
       <r>     7.3225    28.1283  1356.1456 </r>
       <r>     7.3941    31.2266  1358.3830 </r>
       <r>     7.4658    30.3962  1360.5610 </r>
       <r>     7.5374    60.1095  1364.8679 </r>
       <r>     7.6091    72.0286  1370.0289 </r>
       <r>     7.6807    26.8215  1371.9507 </r>
       <r>     7.7524    54.2658  1375.8390 </r>
       <r>     7.8240    69.5872  1380.8250 </r>
       <r>     7.8957    73.2820  1386.0758 </r>
       <r>     7.9673    75.3470  1391.4746 </r>
       <r>     8.0390    66.4803  1396.2380 </r>
       <r>     8.1106    34.5787  1398.7156 </r>
       <r>     8.1823    18.8229  1400.0643 </r>
       <r>     8.2539     8.4508  1400.6699 </r>
       <r>     8.3256    10.1166  1401.3947 </r>
       <r>     8.3973    50.5671  1405.0180 </r>
       <r>     8.4689    34.5215  1407.4915 </r>
       <r>     8.5406    31.7017  1409.7630 </r>
       <r>     8.6122    94.3151  1416.5208 </r>
       <r>     8.6839   105.1013  1424.0515 </r>
       <r>     8.7555    58.7848  1428.2636 </r>
       <r>     8.8272    51.6005  1431.9609 </r>
       <r>     8.8988    33.3846  1434.3529 </r>
       <r>     8.9705    45.8096  1437.6353 </r>
       <r>     9.0421    30.4990  1439.8206 </r>
       <r>     9.1138    22.3004  1441.4185 </r>
       <r>     9.1854    10.3846  1442.1625 </r>
       <r>     9.2571    16.4259  1443.3395 </r>
       <r>     9.3287    53.3038  1447.1588 </r>
       <r>     9.4004    49.7743  1450.7252 </r>
       <r>     9.4720    54.3169  1454.6171 </r>
       <r>     9.5437    38.2630  1457.3588 </r>
       <r>     9.6153    50.6596  1460.9886 </r>
       <r>     9.6870    50.0387  1464.5740 </r>
       <r>     9.7586    47.8984  1468.0060 </r>
       <r>     9.8303    52.2063  1471.7467 </r>
       <r>     9.9019    76.3929  1477.2204 </r>
       <r>     9.9736    55.6259  1481.2061 </r>
       <r>    10.0452   107.7202  1488.9244 </r>
       <r>    10.1169   119.3820  1497.4784 </r>
       <r>    10.1886    43.6728  1500.6076 </r>
       <r>    10.2602    28.3437  1502.6385 </r>
       <r>    10.3319    48.8002  1506.1352 </r>
       <r>    10.4035    55.7977  1510.1332 </r>
       <r>    10.4752    90.2567  1516.6002 </r>
       <r>    10.5468   109.5169  1524.4473 </r>
       <r>    10.6185   112.1588  1532.4837 </r>
       <r>    10.6901    94.5559  1539.2588 </r>
       <r>    10.7618    78.0935  1544.8544 </r>
       <r>    10.8334   107.2298  1552.5376 </r>
       <r>    10.9051    90.3437  1559.0109 </r>
       <r>    10.9767    65.1245  1563.6772 </r>
       <r>    11.0484    35.2184  1566.2007 </r>
       <r>    11.1200    54.9943  1570.1411 </r>
       <r>    11.1917    52.1290  1573.8763 </r>
       <r>    11.2633    44.4982  1577.0647 </r>
       <r>    11.3350    83.0008  1583.0118 </r>
       <r>    11.4066    53.8069  1586.8672 </r>
       <r>    11.4783    54.5661  1590.7770 </r>
       <r>    11.5499    88.7170  1597.1337 </r>
       <r>    11.6216    68.4204  1602.0362 </r>
       <r>    11.6932    46.5952  1605.3748 </r>
       <r>    11.7649    12.3524  1606.2599 </r>
       <r>    11.8365    14.7422  1607.3162 </r>
       <r>    11.9082    36.0574  1609.8998 </r>
       <r>    11.9798    21.1556  1611.4156 </r>
       <r>    12.0515     3.0530  1611.6344 </r>
       <r>    12.1232     4.5367  1611.9594 </r>
       <r>    12.1948     0.5642  1611.9998 </r>
       <r>    12.2665     0.0023  1612.0000 </r>
       <r>    12.3381     0.0000  1612.0000 </r>
       <r>    12.4098     0.0000  1612.0000 </r>
       <r>    12.4814     0.0000  1612.0000 </r>
       <r>    12.5531     0.0000  1612.0000 </r>
       <r>    12.6247     0.0000  1612.0000 </r>
       <r>    12.6964     0.0000  1612.0000 </r>
       <r>    12.7680     0.0000  1612.0000 </r>
       <r>    12.8397     0.0000  1612.0000 </r>
       <r>    12.9113     0.0000  1612.0000 </r>
       <r>    12.9830     0.0000  1612.0000 </r>
       <r>    13.0546     0.0000  1612.0000 </r>
      </set>
     </set>
    </array>
   </total>
  </dos>
 </calculation>
 <structure name="finalpos" >
  <crystal>
   <varray name="basis" >
    <v>      14.01039598       0.00139138       0.00000000 </v>
    <v>      -0.00150196      13.76691092       0.00000000 </v>
    <v>       0.00000000       0.00000000      14.55019386 </v>
   </varray>
   <i name="volume">   2806.43958022 </i>
   <varray name="rec_basis" >
    <v>       0.07137557       0.00000779       0.00000000 </v>
    <v>      -0.00000721       0.07263794       0.00000000 </v>
    <v>       0.00000000       0.00000000       0.06872761 </v>
   </varray>
  </crystal>
  <varray name="positions" >
   <v>       0.42987898       0.17167077       0.33247735 </v>
   <v>       0.92987898       0.17167077       0.33247735 </v>
   <v>       0.42987898       0.67167077       0.33247735 </v>
   <v>       0.92987898       0.67167077       0.33247735 </v>
   <v>       0.42987898       0.17167077       0.66581068 </v>
   <v>       0.92987898       0.17167077       0.66581068 </v>
   <v>       0.42987898       0.67167077       0.66581068 </v>
   <v>       0.92987898       0.67167077       0.66581068 </v>
   <v>       0.42987898       0.17167077       0.99914401 </v>
   <v>       0.92987898       0.17167077       0.99914401 </v>
   <v>       0.42987898       0.67167077       0.99914401 </v>
   <v>       0.92987898       0.67167077       0.99914401 </v>
   <v>       0.07012102       0.32832923       0.33247735 </v>
   <v>       0.57012102       0.32832923       0.33247735 </v>
   <v>       0.07012102       0.82832923       0.33247735 </v>
   <v>       0.57012102       0.82832923       0.33247735 </v>
   <v>       0.07012102       0.32832923       0.66581068 </v>
   <v>       0.57012102       0.32832923       0.66581068 </v>
   <v>       0.07012102       0.82832923       0.66581068 </v>
   <v>       0.57012102       0.82832923       0.66581068 </v>
   <v>       0.07012102       0.32832923       0.99914401 </v>
   <v>       0.57012102       0.32832923       0.99914401 </v>
   <v>       0.07012102       0.82832923       0.99914401 </v>
   <v>       0.57012102       0.82832923       0.99914401 </v>
   <v>       0.31940677       0.42167367       0.05641075 </v>
   <v>       0.82012053       0.42167367       0.05641075 </v>
   <v>       0.32012053       0.92167367       0.05641075 </v>
   <v>       0.82012053       0.92167367       0.05641075 </v>
   <v>       0.32012053       0.42167367       0.38974408 </v>
   <v>       0.82012053       0.42167367       0.38974408 </v>
   <v>       0.32012053       0.92167367       0.38974408 </v>
   <v>       0.82012053       0.92167367       0.38974408 </v>
   <v>       0.32012053       0.42167367       0.72307741 </v>
   <v>       0.82012053       0.42167367       0.72307741 </v>
   <v>       0.32012053       0.92167367       0.72307741 </v>
   <v>       0.82012053       0.92167367       0.72307741 </v>
   <v>       0.17987947       0.07832633       0.05641075 </v>
   <v>       0.67987947       0.07832633       0.05641075 </v>
   <v>       0.17987947       0.57832633       0.05641075 </v>
   <v>       0.67987947       0.57832633       0.05641075 </v>
   <v>       0.17987947       0.07832633       0.38974408 </v>
   <v>       0.67987947       0.07832633       0.38974408 </v>
   <v>       0.17987947       0.57832633       0.38974408 </v>
   <v>       0.67987947       0.57832633       0.38974408 </v>
   <v>       0.17987947       0.07832633       0.72307741 </v>
   <v>       0.67987947       0.07832633       0.72307741 </v>
   <v>       0.17987947       0.57832633       0.72307741 </v>
   <v>       0.67987947       0.57832633       0.72307741 </v>
   <v>       0.17987776       0.32832369       0.16580856 </v>
   <v>       0.67987776       0.32832369       0.16580856 </v>
   <v>       0.17987776       0.82832369       0.16580856 </v>
   <v>       0.67987776       0.82832369       0.16580856 </v>
   <v>       0.17987776       0.32832369       0.49914189 </v>
   <v>       0.67987776       0.32832369       0.49914189 </v>
   <v>       0.17987776       0.82832369       0.49914189 </v>
   <v>       0.67987776       0.82832369       0.49914189 </v>
   <v>       0.17987776       0.32832369       0.83247522 </v>
   <v>       0.67987776       0.32832369       0.83247522 </v>
   <v>       0.17987776       0.82832369       0.83247522 </v>
   <v>       0.67987776       0.82832369       0.83247522 </v>
   <v>       0.32012224       0.17167631       0.16580856 </v>
   <v>       0.82012224       0.17167631       0.16580856 </v>
   <v>       0.32012224       0.67167631       0.16580856 </v>
   <v>       0.82012224       0.67167631       0.16580856 </v>
   <v>       0.32012224       0.17167631       0.49914189 </v>
   <v>       0.82012224       0.17167631       0.49914189 </v>
   <v>       0.32012224       0.67167631       0.49914189 </v>
   <v>       0.82012224       0.67167631       0.49914189 </v>
   <v>       0.32012224       0.17167631       0.83247522 </v>
   <v>       0.82012224       0.17167631       0.83247522 </v>
   <v>       0.32012224       0.67167631       0.83247522 </v>
   <v>       0.82012224       0.67167631       0.83247522 </v>
   <v>       0.42987656       0.42167494       0.22308000 </v>
   <v>       0.92987656       0.42167494       0.22308000 </v>
   <v>       0.42987656       0.92167494       0.22308000 </v>
   <v>       0.92987656       0.92167494       0.22308000 </v>
   <v>       0.42987656       0.42167494       0.55641333 </v>
   <v>       0.92987656       0.42167494       0.55641333 </v>
   <v>       0.42987656       0.92167494       0.55641333 </v>
   <v>       0.92987656       0.92167494       0.55641333 </v>
   <v>       0.42987656       0.42167494       0.88974666 </v>
   <v>       0.92987656       0.42167494       0.88974666 </v>
   <v>       0.42987656       0.92167494       0.88974666 </v>
   <v>       0.92987656       0.92167494       0.88974666 </v>
   <v>       0.07012344       0.07832506       0.22308000 </v>
   <v>       0.57012344       0.07832506       0.22308000 </v>
   <v>       0.07012344       0.57832506       0.22308000 </v>
   <v>       0.57012344       0.57832506       0.22308000 </v>
   <v>       0.07012344       0.07832506       0.55641333 </v>
   <v>       0.57012344       0.07832506       0.55641333 </v>
   <v>       0.07012344       0.57832506       0.55641333 </v>
   <v>       0.57012344       0.57832506       0.55641333 </v>
   <v>       0.07012344       0.07832506       0.88974666 </v>
   <v>       0.57012344       0.07832506       0.88974666 </v>
   <v>       0.07012344       0.57832506       0.88974666 </v>
   <v>       0.57012344       0.57832506       0.88974666 </v>
   <v>       0.00000000       0.00000000       0.05479365 </v>
   <v>       0.50000000       0.00000000       0.05479365 </v>
   <v>       0.00000000       0.50000000       0.05479365 </v>
   <v>       0.50000000       0.50000000       0.05479365 </v>
   <v>       0.00000000       0.00000000       0.38812698 </v>
   <v>       0.50000000       0.00000000       0.38812698 </v>
   <v>       0.00000000       0.50000000       0.38812698 </v>
   <v>       0.50000000       0.50000000       0.38812698 </v>
   <v>       0.00000000       0.00000000       0.72146032 </v>
   <v>       0.50000000       0.00000000       0.72146032 </v>
   <v>       0.00000000       0.50000000       0.72146032 </v>
   <v>       0.50000000       0.50000000       0.72146032 </v>
   <v>       0.25000000       0.00000000       0.22145206 </v>
   <v>       0.75000000       0.00000000       0.22145206 </v>
   <v>       0.25000000       0.50000000       0.22145206 </v>
   <v>       0.75000000       0.50000000       0.22145206 </v>
   <v>       0.25000000       0.00000000       0.55478539 </v>
   <v>       0.75000000       0.00000000       0.55478539 </v>
   <v>       0.25000000       0.50000000       0.55478539 </v>
   <v>       0.75000000       0.50000000       0.55478539 </v>
   <v>       0.25000000       0.00000000       0.88811873 </v>
   <v>       0.75000000       0.00000000       0.88811873 </v>
   <v>       0.25000000       0.50000000       0.88811873 </v>
   <v>       0.75000000       0.50000000       0.88811873 </v>
   <v>       0.00000000       0.25000000       0.16743769 </v>
   <v>       0.50000000       0.25000000       0.16743769 </v>
   <v>       0.00000000       0.75000000       0.16743769 </v>
   <v>       0.50000000       0.75000000       0.16743769 </v>
   <v>       0.00000000       0.25000000       0.50077102 </v>
   <v>       0.50000000       0.25000000       0.50077102 </v>
   <v>       0.00000000       0.75000000       0.50077102 </v>
   <v>       0.50000000       0.75000000       0.50077102 </v>
   <v>       0.00000000       0.25000000       0.83410435 </v>
   <v>       0.50000000       0.25000000       0.83410435 </v>
   <v>       0.00000000       0.75000000       0.83410435 </v>
   <v>       0.50000000       0.75000000       0.83410435 </v>
   <v>       0.25000000       0.25000000       0.00076332 </v>
   <v>       0.75000000       0.25000000       0.00076332 </v>
   <v>       0.25000000       0.75000000       0.00076332 </v>
   <v>       0.75000000       0.75000000       0.00076332 </v>
   <v>       0.25000000       0.25000000       0.33409665 </v>
   <v>       0.75000000       0.25000000       0.33409665 </v>
   <v>       0.25000000       0.75000000       0.33409665 </v>
   <v>       0.75000000       0.75000000       0.33409665 </v>
   <v>       0.25000000       0.25000000       0.66742999 </v>
   <v>       0.75000000       0.25000000       0.66742999 </v>
   <v>       0.25000000       0.75000000       0.66742999 </v>
   <v>       0.75000000       0.75000000       0.66742999 </v>
  </varray>
 </structure>
</modeling>
