<?xml version="1.0" encoding="ISO-8859-1"?>
<modeling>
 <generator>
  <i name="program" type="string">vasp </i>
  <i name="version" type="string">5.4.4.18Apr17-6-g9f103f2a35  </i>
  <i name="subversion" type="string">(build Jul 30 2020 14:31:59) complex            parallel </i>
  <i name="platform" type="string">LinuxIFC </i>
  <i name="date" type="string">2021 02 04 </i>
  <i name="time" type="string">08:07:51 </i>
 </generator>
 <incar>
  <i type="string" name="PREC">accurate</i>
  <i type="string" name="ALGO"> normal</i>
  <i type="logical" name="ADDGRID"> T  </i>
  <i type="int" name="ISPIN">     1</i>
  <i type="int" name="NELM">   200</i>
  <i type="int" name="NELMIN">     8</i>
  <i name="EDIFF">      0.00000001</i>
  <i type="int" name="ISIF">     3</i>
  <i type="int" name="ISYM">     0</i>
  <i name="ENCUT">    650.00000000</i>
  <i type="logical" name="LREAL"> F  </i>
  <i type="int" name="ISMEAR">     0</i>
  <i name="SIGMA">      0.05000000</i>
  <i type="logical" name="LWAVE"> F  </i>
  <i type="logical" name="LASPH"> T  </i>
  <v type="int" name="KPOINT_BSE">    -1     0     0     0</v>
  <i type="int" name="NELM">   200</i>
  <i type="string" name="GGA"> ps</i>
  <i type="logical" name="LASPH"> T  </i>
 </incar>
 <structure name="primitive_cell" >
  <crystal>
   <varray name="basis" >
    <v>      14.01039598       0.00139138       0.00000000 </v>
    <v>      -0.00150196      13.76691092       0.00000000 </v>
    <v>       0.00000000       0.00000000      14.55019386 </v>
   </varray>
   <i name="volume">   2806.43958022 </i>
   <varray name="rec_basis" >
    <v>       0.07137557       0.00000779       0.00000000 </v>
    <v>      -0.00000721       0.07263794       0.00000000 </v>
    <v>       0.00000000       0.00000000       0.06872761 </v>
   </varray>
  </crystal>
  <varray name="positions" >
   <v>       0.42987898       0.17239715       0.33247735 </v>
   <v>      -0.50000000       0.00000000       0.38812698 </v>
   <v>       0.25000000       0.25000000       0.33409665 </v>
   <v>      -0.50000000       0.25000000       0.16743769 </v>
   <v>      -0.42987656       0.07832506       0.22308000 </v>
   <v>      -0.50000000       0.25000000      -0.49922898 </v>
   <v>       0.32012224       0.17167631       0.49914189 </v>
   <v>       0.32012224       0.17167631       0.16580856 </v>
   <v>      -0.42987898       0.32832923       0.33247735 </v>
   <v>       0.42987656       0.42167494       0.22308000 </v>
   <v>       0.42987656      -0.07832506       0.22308000 </v>
   <v>       0.25000000       0.00000000       0.22145206 </v>
   <v>       0.17987948       0.07832633       0.38974408 </v>
   <v>      -0.32012052       0.07832633       0.38974408 </v>
   <v>       0.32012052       0.42167367       0.38974408 </v>
   <v>       0.32012052      -0.07832633       0.38974408 </v>
   <v>      -0.42987656       0.07832506      -0.44358667 </v>
   <v>      -0.25000000       0.25000000       0.33409665 </v>
   <v>      -0.50000000      -0.50000000       0.38812698 </v>
   <v>       0.42987656       0.42167494      -0.44358667 </v>
   <v>       0.25000000       0.00000000      -0.44521461 </v>
   <v>       0.42987656      -0.07832506      -0.44358667 </v>
   <v>      -0.32012224       0.32832369       0.49914189 </v>
   <v>      -0.32012224       0.32832369       0.16580856 </v>
   <v>       0.17987776       0.32832369       0.49914189 </v>
   <v>       0.17987776       0.32832369       0.16580856 </v>
   <v>      -0.50000000       0.00000000       0.05479365 </v>
   <v>       0.42987898       0.17167077      -0.33418932 </v>
   <v>       0.42987898       0.17167077      -0.00085599 </v>
   <v>      -0.42987898      -0.17167077       0.33247735 </v>
   <v>      -0.25000000       0.00000000       0.22145206 </v>
   <v>       0.25000000      -0.50000000       0.22145206 </v>
   <v>       0.07012344       0.07832506       0.22308000 </v>
   <v>       0.07012102       0.32832923       0.33247735 </v>
   <v>       0.17987948       0.07832633       0.05641075 </v>
   <v>      -0.32012052       0.07832633       0.05641075 </v>
   <v>       0.32012052       0.42167367       0.05641075 </v>
   <v>       0.32012052      -0.07832633       0.05641075 </v>
   <v>       0.25000000       0.25000000       0.00076332 </v>
   <v>       0.25000000       0.25000000      -0.33257001 </v>
   <v>      -0.42987898       0.32832923      -0.33418932 </v>
   <v>      -0.42987898       0.32832923      -0.00085599 </v>
   <v>      -0.17987776       0.17167631       0.49914189 </v>
   <v>      -0.17987776       0.17167631       0.16580856 </v>
   <v>      -0.25000000       0.00000000      -0.44521461 </v>
   <v>       0.25000000      -0.50000000      -0.44521461 </v>
   <v>      -0.42987656      -0.42167494       0.22308000 </v>
   <v>      -0.50000000      -0.50000000       0.05479365 </v>
   <v>       0.07012344       0.07832506      -0.44358667 </v>
   <v>      -0.50000000       0.00000000      -0.27853968 </v>
   <v>       0.25000000      -0.25000000       0.33409665 </v>
   <v>      -0.50000000      -0.25000000       0.16743769 </v>
   <v>       0.17987776      -0.17167631       0.49914189 </v>
   <v>       0.17987776      -0.17167631       0.16580856 </v>
   <v>      -0.32012224      -0.17167631       0.49914189 </v>
   <v>      -0.32012224      -0.17167631       0.16580856 </v>
   <v>      -0.50000000      -0.25000000      -0.49922898 </v>
   <v>      -0.17987948       0.42167367       0.38974408 </v>
   <v>      -0.17987948      -0.07832633       0.38974408 </v>
   <v>       0.00000000       0.00000000       0.38812698 </v>
   <v>      -0.25000000      -0.50000000       0.22145206 </v>
   <v>       0.00000000       0.25000000       0.16743769 </v>
   <v>       0.00000000       0.25000000      -0.49922898 </v>
   <v>      -0.32012052      -0.42167367       0.38974408 </v>
   <v>       0.17987948      -0.42167367       0.38974408 </v>
   <v>      -0.25000000       0.25000000       0.00076332 </v>
   <v>      -0.25000000       0.25000000      -0.33257001 </v>
   <v>      -0.42987656      -0.42167494      -0.44358667 </v>
   <v>       0.17987948       0.07832633      -0.27692259 </v>
   <v>      -0.32012052       0.07832633      -0.27692259 </v>
   <v>       0.32012052       0.42167367      -0.27692259 </v>
   <v>       0.32012052      -0.07832633      -0.27692259 </v>
   <v>      -0.42987656       0.07832506      -0.11025334 </v>
   <v>       0.42987898      -0.32832923       0.33247735 </v>
   <v>       0.07012102      -0.17167077       0.33247735 </v>
   <v>      -0.07012102       0.17167077       0.33247735 </v>
   <v>      -0.42987898      -0.17167077      -0.33418932 </v>
   <v>      -0.42987898      -0.17167077      -0.00085599 </v>
   <v>      -0.25000000      -0.50000000      -0.44521461 </v>
   <v>       0.42987656       0.42167494      -0.11025334 </v>
   <v>      -0.50000000      -0.50000000      -0.27853968 </v>
   <v>       0.42987656      -0.07832506      -0.11025334 </v>
   <v>       0.07012102       0.32832923      -0.33418932 </v>
   <v>       0.07012102       0.32832923      -0.00085599 </v>
   <v>       0.25000000       0.00000000      -0.11188127 </v>
   <v>      -0.25000000      -0.25000000       0.33409665 </v>
   <v>      -0.50000000       0.25000000      -0.16589565 </v>
   <v>       0.32012224       0.17167631      -0.16752478 </v>
   <v>       0.32012224      -0.32832369       0.49914189 </v>
   <v>       0.32012224      -0.32832369       0.16580856 </v>
   <v>       0.00000000      -0.50000000       0.38812698 </v>
   <v>      -0.17987948       0.42167367       0.05641075 </v>
   <v>      -0.17987948      -0.07832633       0.05641075 </v>
   <v>       0.00000000       0.00000000       0.05479365 </v>
   <v>       0.07012344      -0.42167494       0.22308000 </v>
   <v>      -0.32012052      -0.42167367       0.05641075 </v>
   <v>       0.17987948      -0.42167367       0.05641075 </v>
   <v>      -0.07012344       0.42167494       0.22308000 </v>
   <v>       0.25000000      -0.25000000       0.00076332 </v>
   <v>      -0.07012344      -0.07832506       0.22308000 </v>
   <v>       0.25000000      -0.25000000      -0.33257001 </v>
   <v>       0.07012344      -0.42167494      -0.44358667 </v>
   <v>      -0.25000000       0.00000000      -0.11188127 </v>
   <v>       0.25000000      -0.50000000      -0.11188127 </v>
   <v>       0.07012344       0.07832506      -0.11025334 </v>
   <v>      -0.32012224       0.32832369      -0.16752478 </v>
   <v>       0.17987776       0.32832369      -0.16752478 </v>
   <v>       0.42987898      -0.32832923      -0.33418932 </v>
   <v>       0.42987898      -0.32832923      -0.00085599 </v>
   <v>       0.07012102      -0.17167077      -0.33418932 </v>
   <v>       0.07012102      -0.17167077      -0.00085599 </v>
   <v>      -0.07012344       0.42167494      -0.44358667 </v>
   <v>      -0.07012344      -0.07832506      -0.44358667 </v>
   <v>      -0.07012102       0.17167077      -0.33418932 </v>
   <v>      -0.07012102       0.17167077      -0.00085599 </v>
   <v>       0.00000000      -0.50000000       0.05479365 </v>
   <v>       0.00000000       0.00000000      -0.27853968 </v>
   <v>      -0.17987948       0.42167367      -0.27692259 </v>
   <v>      -0.17987948      -0.07832633      -0.27692259 </v>
   <v>      -0.32012052      -0.42167367      -0.27692259 </v>
   <v>       0.17987948      -0.42167367      -0.27692259 </v>
   <v>       0.00000000      -0.25000000       0.16743769 </v>
   <v>       0.00000000      -0.25000000      -0.49922898 </v>
   <v>      -0.42987656      -0.42167494      -0.11025334 </v>
   <v>      -0.25000000      -0.25000000       0.00076332 </v>
   <v>      -0.25000000      -0.25000000      -0.33257001 </v>
   <v>      -0.25000000      -0.50000000      -0.11188127 </v>
   <v>      -0.17987776       0.17167631      -0.16752478 </v>
   <v>      -0.17987776      -0.32832369       0.49914189 </v>
   <v>      -0.17987776      -0.32832369       0.16580856 </v>
   <v>      -0.50000000      -0.25000000      -0.16589565 </v>
   <v>       0.17987776      -0.17167631      -0.16752478 </v>
   <v>      -0.32012224      -0.17167631      -0.16752478 </v>
   <v>       0.00000000      -0.50000000      -0.27853968 </v>
   <v>       0.00000000       0.25000000      -0.16589565 </v>
   <v>      -0.07012102      -0.32832923       0.33247735 </v>
   <v>       0.07012344      -0.42167494      -0.11025334 </v>
   <v>      -0.07012344       0.42167494      -0.11025334 </v>
   <v>      -0.07012344      -0.07832506      -0.11025334 </v>
   <v>       0.32012224      -0.32832369      -0.16752478 </v>
   <v>      -0.07012102      -0.32832923      -0.33418932 </v>
   <v>      -0.07012102      -0.32832923      -0.00085599 </v>
   <v>       0.00000000      -0.25000000      -0.16589565 </v>
   <v>      -0.17987776      -0.32832369      -0.16752478 </v>
  </varray>
 </structure>
 <varray name="primitive_index" >
  <v type="int" >        1 </v>
  <v type="int" >      102 </v>
  <v type="int" >      137 </v>
  <v type="int" >      122 </v>
  <v type="int" >       86 </v>
  <v type="int" >      126 </v>
  <v type="int" >       65 </v>
  <v type="int" >       61 </v>
  <v type="int" >       14 </v>
  <v type="int" >       73 </v>
  <v type="int" >       75 </v>
  <v type="int" >      109 </v>
  <v type="int" >       41 </v>
  <v type="int" >       42 </v>
  <v type="int" >       29 </v>
  <v type="int" >       31 </v>
  <v type="int" >       90 </v>
  <v type="int" >      138 </v>
  <v type="int" >      104 </v>
  <v type="int" >       77 </v>
  <v type="int" >      113 </v>
  <v type="int" >       79 </v>
  <v type="int" >       54 </v>
  <v type="int" >       50 </v>
  <v type="int" >       53 </v>
  <v type="int" >       49 </v>
  <v type="int" >       98 </v>
  <v type="int" >        5 </v>
  <v type="int" >        9 </v>
  <v type="int" >       16 </v>
  <v type="int" >      110 </v>
  <v type="int" >      111 </v>
  <v type="int" >       85 </v>
  <v type="int" >       13 </v>
  <v type="int" >       37 </v>
  <v type="int" >       38 </v>
  <v type="int" >       25 </v>
  <v type="int" >       27 </v>
  <v type="int" >      133 </v>
  <v type="int" >      141 </v>
  <v type="int" >       18 </v>
  <v type="int" >       22 </v>
  <v type="int" >       66 </v>
  <v type="int" >       62 </v>
  <v type="int" >      114 </v>
  <v type="int" >      115 </v>
  <v type="int" >       88 </v>
  <v type="int" >      100 </v>
  <v type="int" >       89 </v>
  <v type="int" >      106 </v>
  <v type="int" >      139 </v>
  <v type="int" >      124 </v>
  <v type="int" >       55 </v>
  <v type="int" >       51 </v>
  <v type="int" >       56 </v>
  <v type="int" >       52 </v>
  <v type="int" >      128 </v>
  <v type="int" >       30 </v>
  <v type="int" >       32 </v>
  <v type="int" >      101 </v>
  <v type="int" >      112 </v>
  <v type="int" >      121 </v>
  <v type="int" >      125 </v>
  <v type="int" >       44 </v>
  <v type="int" >       43 </v>
  <v type="int" >      134 </v>
  <v type="int" >      142 </v>
  <v type="int" >       92 </v>
  <v type="int" >       45 </v>
  <v type="int" >       46 </v>
  <v type="int" >       33 </v>
  <v type="int" >       35 </v>
  <v type="int" >       94 </v>
  <v type="int" >        3 </v>
  <v type="int" >       15 </v>
  <v type="int" >        2 </v>
  <v type="int" >       20 </v>
  <v type="int" >       24 </v>
  <v type="int" >      116 </v>
  <v type="int" >       81 </v>
  <v type="int" >      108 </v>
  <v type="int" >       83 </v>
  <v type="int" >       17 </v>
  <v type="int" >       21 </v>
  <v type="int" >      117 </v>
  <v type="int" >      140 </v>
  <v type="int" >      130 </v>
  <v type="int" >       69 </v>
  <v type="int" >       67 </v>
  <v type="int" >       63 </v>
  <v type="int" >      103 </v>
  <v type="int" >       26 </v>
  <v type="int" >       28 </v>
  <v type="int" >       97 </v>
  <v type="int" >       87 </v>
  <v type="int" >       40 </v>
  <v type="int" >       39 </v>
  <v type="int" >       74 </v>
  <v type="int" >      135 </v>
  <v type="int" >       76 </v>
  <v type="int" >      143 </v>
  <v type="int" >       91 </v>
  <v type="int" >      118 </v>
  <v type="int" >      119 </v>
  <v type="int" >       93 </v>
  <v type="int" >       58 </v>
  <v type="int" >       57 </v>
  <v type="int" >        7 </v>
  <v type="int" >       11 </v>
  <v type="int" >       19 </v>
  <v type="int" >       23 </v>
  <v type="int" >       78 </v>
  <v type="int" >       80 </v>
  <v type="int" >        6 </v>
  <v type="int" >       10 </v>
  <v type="int" >       99 </v>
  <v type="int" >      105 </v>
  <v type="int" >       34 </v>
  <v type="int" >       36 </v>
  <v type="int" >       48 </v>
  <v type="int" >       47 </v>
  <v type="int" >      123 </v>
  <v type="int" >      127 </v>
  <v type="int" >       96 </v>
  <v type="int" >      136 </v>
  <v type="int" >      144 </v>
  <v type="int" >      120 </v>
  <v type="int" >       70 </v>
  <v type="int" >       68 </v>
  <v type="int" >       64 </v>
  <v type="int" >      132 </v>
  <v type="int" >       59 </v>
  <v type="int" >       60 </v>
  <v type="int" >      107 </v>
  <v type="int" >      129 </v>
  <v type="int" >        4 </v>
  <v type="int" >       95 </v>
  <v type="int" >       82 </v>
  <v type="int" >       84 </v>
  <v type="int" >       71 </v>
  <v type="int" >        8 </v>
  <v type="int" >       12 </v>
  <v type="int" >      131 </v>
  <v type="int" >       72 </v>
 </varray>
 <kpoints>
  <generation param="Gamma">
   <v type="int" name="divisions">       2        2        2 </v>
   <v name="usershift">      0.00000000       0.00000000       0.00000000 </v>
   <v name="genvec1">      0.50000000       0.00000000       0.00000000 </v>
   <v name="genvec2">      0.00000000       0.50000000       0.00000000 </v>
   <v name="genvec3">      0.00000000       0.00000000       0.50000000 </v>
   <v name="shift">      0.00000000       0.00000000       0.00000000 </v>
  </generation>
  <varray name="kpointlist" >
   <v>       0.00000000       0.00000000       0.00000000 </v>
   <v>       0.50000000      -0.00000000       0.00000000 </v>
   <v>       0.00000000       0.50000000       0.00000000 </v>
   <v>       0.50000000       0.50000000       0.00000000 </v>
   <v>       0.00000000       0.00000000       0.50000000 </v>
   <v>       0.50000000      -0.00000000       0.50000000 </v>
   <v>       0.00000000       0.50000000       0.50000000 </v>
   <v>       0.50000000       0.50000000       0.50000000 </v>
  </varray>
  <varray name="weights" >
   <v>       0.12500000 </v>
   <v>       0.12500000 </v>
   <v>       0.12500000 </v>
   <v>       0.12500000 </v>
   <v>       0.12500000 </v>
   <v>       0.12500000 </v>
   <v>       0.12500000 </v>
   <v>       0.12500000 </v>
  </varray>
 </kpoints>
 <parameters>
  <separator name="general" >
   <i type="string" name="SYSTEM">unknown system</i>
   <i type="logical" name="LCOMPAT"> F  </i>
  </separator>
  <separator name="electronic" >
   <i type="string" name="PREC">accura</i>
   <i name="ENMAX">    650.00000000</i>
   <i name="ENAUG">    446.84200000</i>
   <i name="EDIFF">      0.00000001</i>
   <i type="int" name="IALGO">    38</i>
   <i type="int" name="IWAVPR">    10</i>
   <i type="int" name="NBANDS">   806</i>
   <i name="NELECT">   1344.00000000</i>
   <i type="int" name="TURBO">     0</i>
   <i type="int" name="IRESTART">     0</i>
   <i type="int" name="NREBOOT">     0</i>
   <i type="int" name="NMIN">     0</i>
   <i name="EREF">      0.00000000</i>
   <separator name="electronic smearing" >
    <i type="int" name="ISMEAR">     0</i>
    <i name="SIGMA">      0.05000000</i>
    <i name="KSPACING">      0.50000000</i>
    <i type="logical" name="KGAMMA"> T  </i>
   </separator>
   <separator name="electronic projectors" >
    <i type="logical" name="LREAL"> F  </i>
    <v name="ROPT">      0.00000000      0.00000000</v>
    <i type="int" name="LMAXPAW">  -100</i>
    <i type="int" name="LMAXMIX">     2</i>
    <i type="logical" name="NLSPLINE"> F  </i>
   </separator>
   <separator name="electronic startup" >
    <i type="int" name="ISTART">     0</i>
    <i type="int" name="ICHARG">     2</i>
    <i type="int" name="INIWAV">     1</i>
   </separator>
   <separator name="electronic spin" >
    <i type="int" name="ISPIN">     1</i>
    <i type="logical" name="LNONCOLLINEAR"> F  </i>
    <v name="MAGMOM">      1.00000000      1.00000000      1.00000000      1.00000000      1.00000000      1.00000000      1.00000000      1.00000000      1.00000000      1.00000000      1.00000000      1.00000000      1.00000000      1.00000000      1.00000000      1.00000000      1.00000000      1.00000000      1.00000000      1.00000000
      1.00000000      1.00000000      1.00000000      1.00000000      1.00000000      1.00000000      1.00000000      1.00000000      1.00000000      1.00000000      1.00000000      1.00000000      1.00000000      1.00000000      1.00000000      1.00000000      1.00000000      1.00000000      1.00000000      1.00000000
      1.00000000      1.00000000      1.00000000      1.00000000      1.00000000      1.00000000      1.00000000      1.00000000      1.00000000      1.00000000      1.00000000      1.00000000      1.00000000      1.00000000      1.00000000      1.00000000      1.00000000      1.00000000      1.00000000      1.00000000
      1.00000000      1.00000000      1.00000000      1.00000000      1.00000000      1.00000000      1.00000000      1.00000000      1.00000000      1.00000000      1.00000000      1.00000000      1.00000000      1.00000000      1.00000000      1.00000000      1.00000000      1.00000000      1.00000000      1.00000000
      1.00000000      1.00000000      1.00000000      1.00000000      1.00000000      1.00000000      1.00000000      1.00000000      1.00000000      1.00000000      1.00000000      1.00000000      1.00000000      1.00000000      1.00000000      1.00000000      1.00000000      1.00000000      1.00000000      1.00000000
      1.00000000      1.00000000      1.00000000      1.00000000      1.00000000      1.00000000      1.00000000      1.00000000      1.00000000      1.00000000      1.00000000      1.00000000      1.00000000      1.00000000      1.00000000      1.00000000      1.00000000      1.00000000      1.00000000      1.00000000
      1.00000000      1.00000000      1.00000000      1.00000000      1.00000000      1.00000000      1.00000000      1.00000000      1.00000000      1.00000000      1.00000000      1.00000000      1.00000000      1.00000000      1.00000000      1.00000000      1.00000000      1.00000000      1.00000000      1.00000000
      1.00000000      1.00000000      1.00000000      1.00000000</v>
    <i name="NUPDOWN">     -1.00000000</i>
    <i type="logical" name="LSORBIT"> F  </i>
    <v name="SAXIS">      0.00000000      0.00000000      1.00000000</v>
    <i type="logical" name="LSPIRAL"> F  </i>
    <v name="QSPIRAL">      0.00000000      0.00000000      0.00000000</v>
    <i type="logical" name="LZEROZ"> F  </i>
   </separator>
   <separator name="electronic exchange-correlation" >
    <i type="logical" name="LASPH"> T  </i>
    <i type="logical" name="LMETAGGA"> F  </i>
   </separator>
   <separator name="electronic convergence" >
    <i type="int" name="NELM">   200</i>
    <i type="int" name="NELMDL">    -5</i>
    <i type="int" name="NELMIN">     8</i>
    <i name="ENINI">    650.00000000</i>
    <separator name="electronic convergence detail" >
     <i type="logical" name="LDIAG"> T  </i>
     <i type="logical" name="LSUBROT"> F  </i>
     <i name="WEIMIN">      0.00000000</i>
     <i name="EBREAK">      0.00000000</i>
     <i name="DEPER">      0.30000000</i>
     <i type="int" name="NRMM">     4</i>
     <i name="TIME">      0.40000000</i>
    </separator>
   </separator>
   <separator name="electronic mixer" >
    <i name="AMIX">      0.40000000</i>
    <i name="BMIX">      1.00000000</i>
    <i name="AMIN">      0.10000000</i>
    <i name="AMIX_MAG">      1.60000000</i>
    <i name="BMIX_MAG">      1.00000000</i>
    <separator name="electronic mixer details" >
     <i type="int" name="IMIX">     4</i>
     <i type="logical" name="MIXFIRST"> F  </i>
     <i type="int" name="MAXMIX">   -45</i>
     <i name="WC">    100.00000000</i>
     <i type="int" name="INIMIX">     1</i>
     <i type="int" name="MIXPRE">     1</i>
     <i type="int" name="MREMOVE">     5</i>
    </separator>
   </separator>
   <separator name="electronic dipolcorrection" >
    <i type="logical" name="LDIPOL"> F  </i>
    <i type="logical" name="LMONO"> F  </i>
    <i type="int" name="IDIPOL">     0</i>
    <i name="EPSILON">      1.00000000</i>
    <v name="DIPOL">   -100.00000000   -100.00000000   -100.00000000</v>
    <i name="EFIELD">      0.00000000</i>
   </separator>
  </separator>
  <separator name="grids" >
   <i type="int" name="NGX">   120</i>
   <i type="int" name="NGY">   120</i>
   <i type="int" name="NGZ">   126</i>
   <i type="int" name="NGXF">   240</i>
   <i type="int" name="NGYF">   240</i>
   <i type="int" name="NGZF">   252</i>
   <i type="logical" name="ADDGRID"> T  </i>
  </separator>
  <separator name="ionic" >
   <i type="int" name="NSW">     0</i>
   <i type="int" name="IBRION">    -1</i>
   <i type="int" name="MDALGO">     0</i>
   <i type="int" name="ISIF">     3</i>
   <i name="PSTRESS">      0.00000000</i>
   <i name="EDIFFG">      0.00000010</i>
   <i type="int" name="NFREE">     0</i>
   <i name="POTIM">      0.50000000</i>
   <i name="SMASS">     -3.00000000</i>
   <i name="SCALEE">      1.00000000</i>
  </separator>
  <separator name="ionic md" >
   <i name="TEBEG">      0.00010000</i>
   <i name="TEEND">      0.00010000</i>
   <i type="int" name="NBLOCK">     1</i>
   <i type="int" name="KBLOCK">     1</i>
   <i type="int" name="NPACO">   256</i>
   <i name="APACO">     16.00000000</i>
  </separator>
  <separator name="symmetry" >
   <i type="int" name="ISYM">     0</i>
   <i name="SYMPREC">      0.00001000</i>
  </separator>
  <separator name="dos" >
   <i type="int" name="LORBIT">     0</i>
   <v name="RWIGS">     -1.00000000     -1.00000000</v>
   <i type="int" name="NEDOS">   301</i>
   <i name="EMIN">     10.00000000</i>
   <i name="EMAX">    -10.00000000</i>
   <i name="EFERMI">      0.00000000</i>
  </separator>
  <separator name="writing" >
   <i type="int" name="NWRITE">     2</i>
   <i type="logical" name="LWAVE"> F  </i>
   <i type="logical" name="LDOWNSAMPLE"> F  </i>
   <i type="logical" name="LCHARG"> T  </i>
   <i type="logical" name="LPARD"> F  </i>
   <i type="logical" name="LVTOT"> F  </i>
   <i type="logical" name="LVHAR"> F  </i>
   <i type="logical" name="LELF"> F  </i>
   <i type="logical" name="LOPTICS"> F  </i>
   <v name="STM">      0.00000000      0.00000000      0.00000000      0.00000000      0.00000000      0.00000000      0.00000000</v>
  </separator>
  <separator name="performance" >
   <i type="int" name="NPAR">     1</i>
   <i type="int" name="NSIM">     4</i>
   <i type="int" name="NBLK">    -1</i>
   <i type="logical" name="LPLANE"> T  </i>
   <i type="logical" name="LSCALAPACK"> T  </i>
   <i type="logical" name="LSCAAWARE"> F  </i>
   <i type="logical" name="LSCALU"> F  </i>
   <i type="logical" name="LASYNC"> F  </i>
   <i type="logical" name="LORBITALREAL"> F  </i>
  </separator>
  <separator name="miscellaneous" >
   <i type="int" name="IDIOT">     3</i>
   <i type="int" name="ISPECIAL">     0</i>
   <i type="logical" name="LMUSIC"> F  </i>
   <v name="POMASS">    107.86800000     78.96000000</v>
   <v name="DARWINR">      0.00000000      0.00000000</v>
   <v name="DARWINV">      1.00000000      1.00000000</v>
   <i type="logical" name="LCORR"> T  </i>
  </separator>
  <i type="logical" name="GGA_COMPAT"> T  </i>
  <i type="logical" name="LBERRY"> F  </i>
  <i type="int" name="ICORELEVEL">     0</i>
  <i type="logical" name="LDAU"> F  </i>
  <i type="int" name="I_CONSTRAINED_M">     0</i>
  <separator name="electronic exchange-correlation" >
   <i type="string" name="GGA">PS</i>
   <i type="int" name="VOSKOWN">     0</i>
   <i type="logical" name="LHFCALC"> F  </i>
   <i type="string" name="PRECFOCK"></i>
   <i type="logical" name="LSYMGRAD"> F  </i>
   <i type="logical" name="LHFONE"> F  </i>
   <i type="logical" name="LRHFCALC"> F  </i>
   <i type="logical" name="LTHOMAS"> F  </i>
   <i type="logical" name="LMODELHF"> F  </i>
   <i name="ENCUT4O">     -1.00000000</i>
   <i type="int" name="EXXOEP">     0</i>
   <i type="int" name="FOURORBIT">     0</i>
   <i name="AEXX">      0.00000000</i>
   <i name="HFALPHA">      0.00000000</i>
   <i name="MCALPHA">      0.00000000</i>
   <i name="ALDAX">      1.00000000</i>
   <i name="AGGAX">      1.00000000</i>
   <i name="ALDAC">      1.00000000</i>
   <i name="AGGAC">      1.00000000</i>
   <i type="int" name="NKREDX">     1</i>
   <i type="int" name="NKREDY">     1</i>
   <i type="int" name="NKREDZ">     1</i>
   <i type="logical" name="SHIFTRED"> F  </i>
   <i type="logical" name="ODDONLY"> F  </i>
   <i type="logical" name="EVENONLY"> F  </i>
   <i type="int" name="LMAXFOCK">     0</i>
   <i type="int" name="NMAXFOCKAE">     0</i>
   <i type="logical" name="LFOCKAEDFT"> F  </i>
   <i name="HFSCREEN">      0.00000000</i>
   <i name="HFSCREENC">      0.00000000</i>
   <i type="int" name="NBANDSGWLOW">     0</i>
  </separator>
  <separator name="vdW DFT" >
   <i type="logical" name="LUSE_VDW"> F  </i>
   <i name="Zab_VDW">     -0.84910000</i>
   <i name="PARAM1">      0.12340000</i>
   <i name="PARAM2">      1.00000000</i>
   <i name="PARAM3">      0.00000000</i>
  </separator>
  <separator name="model GW" >
   <i type="int" name="MODEL_GW">     0</i>
   <i name="MODEL_EPS0">     11.69349825</i>
   <i name="MODEL_ALPHA">      1.00000000</i>
  </separator>
  <separator name="linear response parameters" >
   <i type="logical" name="LEPSILON"> F  </i>
   <i type="logical" name="LRPA"> F  </i>
   <i type="logical" name="LNABLA"> F  </i>
   <i type="logical" name="LVEL"> F  </i>
   <i type="int" name="KINTER">     0</i>
   <i name="CSHIFT">      0.10000000</i>
   <i name="OMEGAMAX">     -1.00000000</i>
   <i name="DEG_THRESHOLD">      0.00200000</i>
   <i name="RTIME">     -0.10000000</i>
   <i name="WPLASMAI">      0.00000000</i>
   <v name="DFIELD">      0.00000000      0.00000000      0.00000000</v>
   <v name="WPLASMA">      0.00000000      0.00000000      0.00000000      0.00000000      0.00000000      0.00000000      0.00000000      0.00000000      0.00000000</v>
  </separator>
  <separator name="orbital magnetization" >
   <i type="logical" name="NUCIND"> F  </i>
   <v name="MAGPOS">      0.00000000      0.00000000      0.00000000</v>
   <i type="logical" name="LNICSALL"> T  </i>
   <i type="logical" name="ORBITALMAG"> F  </i>
   <i type="logical" name="LMAGBLOCH"> F  </i>
   <i type="logical" name="LCHIMAG"> F  </i>
   <i type="logical" name="LGAUGE"> T  </i>
   <i type="int" name="MAGATOM">     0</i>
   <v name="MAGDIPOL">      0.00000000      0.00000000      0.00000000</v>
   <v name="AVECCONST">      0.00000000      0.00000000      0.00000000</v>
  </separator>
  <separator name="response functions" >
   <i type="logical" name="LADDER"> F  </i>
   <i type="logical" name="LRPAFORCE"> F  </i>
   <i type="logical" name="LFXC"> F  </i>
   <i type="logical" name="LHARTREE"> T  </i>
   <i type="int" name="IBSE">     0</i>
   <v type="int" name="KPOINT">    -1     0     0     0</v>
   <i type="logical" name="LTCTE"> F  </i>
   <i type="logical" name="LTETE"> F  </i>
   <i type="logical" name="LTRIPLET"> F  </i>
   <i type="logical" name="LFXCEPS"> F  </i>
   <i type="logical" name="LFXHEG"> F  </i>
   <i type="int" name="NATURALO">     2</i>
   <i type="logical" name="L2ORDER"> F  </i>
   <i type="logical" name="LMP2LT"> F  </i>
   <i type="logical" name="LUSEW"> F  </i>
   <i name="ENCUTGW">     -2.00000000</i>
   <i name="ENCUTGWSOFT">     -2.00000000</i>
   <i name="ENCUTLF">     -1.00000000</i>
   <i type="int" name="LMAXMP2">    -1</i>
   <i name="SCISSOR">      0.00000000</i>
   <i type="int" name="NOMEGA">     0</i>
   <i type="int" name="NOMEGAR">     0</i>
   <i type="int" name="NBANDSGW">    -1</i>
   <i type="int" name="NBANDSO">    -1</i>
   <i type="int" name="NBANDSV">    -1</i>
   <i type="int" name="NELM">   200</i>
   <i type="int" name="NELMHF">     1</i>
   <i type="int" name="DIM">     3</i>
   <i type="int" name="ANTIRES">     0</i>
   <i name="OMEGAMAX">    -30.00000000</i>
   <i name="OMEGAMIN">    -30.00000000</i>
   <i name="OMEGATL">   -200.00000000</i>
   <i type="int" name="OMEGAGRID">   140</i>
   <i name="CSHIFT">     -0.10000000</i>
   <i type="logical" name="SELFENERGY"> F  </i>
   <i type="logical" name="LSPECTRAL"> F  </i>
   <i type="logical" name="LSPECTRALGW"> F  </i>
   <i type="logical" name="LSINGLES"> F  </i>
   <i type="logical" name="LFERMIGW"> F  </i>
   <i type="logical" name="ODDONLYGW"> F  </i>
   <i type="logical" name="EVENONLYGW"> F  </i>
   <i type="int" name="NKREDLFX">     1</i>
   <i type="int" name="NKREDLFY">     1</i>
   <i type="int" name="NKREDLFZ">     1</i>
   <i type="int" name="MAXMEM">  2800</i>
   <i type="int" name="TELESCOPE">     0</i>
   <i type="int" name="TAUPAR">     1</i>
   <i type="int" name="OMEGAPAR">    -1</i>
   <i name="LAMBDA">      1.00000000</i>
  </separator>
  <separator name="External order field" >
   <i name="OFIELD_KAPPA">      0.00000000</i>
   <v name="OFIELD_K">      0.00000000      0.00000000      0.00000000</v>
   <i name="OFIELD_Q6_NEAR">      0.00000000</i>
   <i name="OFIELD_Q6_FAR">      0.00000000</i>
   <i name="OFIELD_A">      0.00000000</i>
  </separator>
 </parameters>
 <atominfo>
  <atoms>     144 </atoms>
  <types>       2 </types>
  <array name="atoms" >
   <dimension dim="1">ion</dimension>
   <field type="string">element</field>
   <field type="int">atomtype</field>
   <set>
    <rc><c>Ag</c><c>   1</c></rc>
    <rc><c>Ag</c><c>   1</c></rc>
    <rc><c>Ag</c><c>   1</c></rc>
    <rc><c>Ag</c><c>   1</c></rc>
    <rc><c>Ag</c><c>   1</c></rc>
    <rc><c>Ag</c><c>   1</c></rc>
    <rc><c>Ag</c><c>   1</c></rc>
    <rc><c>Ag</c><c>   1</c></rc>
    <rc><c>Ag</c><c>   1</c></rc>
    <rc><c>Ag</c><c>   1</c></rc>
    <rc><c>Ag</c><c>   1</c></rc>
    <rc><c>Ag</c><c>   1</c></rc>
    <rc><c>Ag</c><c>   1</c></rc>
    <rc><c>Ag</c><c>   1</c></rc>
    <rc><c>Ag</c><c>   1</c></rc>
    <rc><c>Ag</c><c>   1</c></rc>
    <rc><c>Ag</c><c>   1</c></rc>
    <rc><c>Ag</c><c>   1</c></rc>
    <rc><c>Ag</c><c>   1</c></rc>
    <rc><c>Ag</c><c>   1</c></rc>
    <rc><c>Ag</c><c>   1</c></rc>
    <rc><c>Ag</c><c>   1</c></rc>
    <rc><c>Ag</c><c>   1</c></rc>
    <rc><c>Ag</c><c>   1</c></rc>
    <rc><c>Ag</c><c>   1</c></rc>
    <rc><c>Ag</c><c>   1</c></rc>
    <rc><c>Ag</c><c>   1</c></rc>
    <rc><c>Ag</c><c>   1</c></rc>
    <rc><c>Ag</c><c>   1</c></rc>
    <rc><c>Ag</c><c>   1</c></rc>
    <rc><c>Ag</c><c>   1</c></rc>
    <rc><c>Ag</c><c>   1</c></rc>
    <rc><c>Ag</c><c>   1</c></rc>
    <rc><c>Ag</c><c>   1</c></rc>
    <rc><c>Ag</c><c>   1</c></rc>
    <rc><c>Ag</c><c>   1</c></rc>
    <rc><c>Ag</c><c>   1</c></rc>
    <rc><c>Ag</c><c>   1</c></rc>
    <rc><c>Ag</c><c>   1</c></rc>
    <rc><c>Ag</c><c>   1</c></rc>
    <rc><c>Ag</c><c>   1</c></rc>
    <rc><c>Ag</c><c>   1</c></rc>
    <rc><c>Ag</c><c>   1</c></rc>
    <rc><c>Ag</c><c>   1</c></rc>
    <rc><c>Ag</c><c>   1</c></rc>
    <rc><c>Ag</c><c>   1</c></rc>
    <rc><c>Ag</c><c>   1</c></rc>
    <rc><c>Ag</c><c>   1</c></rc>
    <rc><c>Ag</c><c>   1</c></rc>
    <rc><c>Ag</c><c>   1</c></rc>
    <rc><c>Ag</c><c>   1</c></rc>
    <rc><c>Ag</c><c>   1</c></rc>
    <rc><c>Ag</c><c>   1</c></rc>
    <rc><c>Ag</c><c>   1</c></rc>
    <rc><c>Ag</c><c>   1</c></rc>
    <rc><c>Ag</c><c>   1</c></rc>
    <rc><c>Ag</c><c>   1</c></rc>
    <rc><c>Ag</c><c>   1</c></rc>
    <rc><c>Ag</c><c>   1</c></rc>
    <rc><c>Ag</c><c>   1</c></rc>
    <rc><c>Ag</c><c>   1</c></rc>
    <rc><c>Ag</c><c>   1</c></rc>
    <rc><c>Ag</c><c>   1</c></rc>
    <rc><c>Ag</c><c>   1</c></rc>
    <rc><c>Ag</c><c>   1</c></rc>
    <rc><c>Ag</c><c>   1</c></rc>
    <rc><c>Ag</c><c>   1</c></rc>
    <rc><c>Ag</c><c>   1</c></rc>
    <rc><c>Ag</c><c>   1</c></rc>
    <rc><c>Ag</c><c>   1</c></rc>
    <rc><c>Ag</c><c>   1</c></rc>
    <rc><c>Ag</c><c>   1</c></rc>
    <rc><c>Ag</c><c>   1</c></rc>
    <rc><c>Ag</c><c>   1</c></rc>
    <rc><c>Ag</c><c>   1</c></rc>
    <rc><c>Ag</c><c>   1</c></rc>
    <rc><c>Ag</c><c>   1</c></rc>
    <rc><c>Ag</c><c>   1</c></rc>
    <rc><c>Ag</c><c>   1</c></rc>
    <rc><c>Ag</c><c>   1</c></rc>
    <rc><c>Ag</c><c>   1</c></rc>
    <rc><c>Ag</c><c>   1</c></rc>
    <rc><c>Ag</c><c>   1</c></rc>
    <rc><c>Ag</c><c>   1</c></rc>
    <rc><c>Ag</c><c>   1</c></rc>
    <rc><c>Ag</c><c>   1</c></rc>
    <rc><c>Ag</c><c>   1</c></rc>
    <rc><c>Ag</c><c>   1</c></rc>
    <rc><c>Ag</c><c>   1</c></rc>
    <rc><c>Ag</c><c>   1</c></rc>
    <rc><c>Ag</c><c>   1</c></rc>
    <rc><c>Ag</c><c>   1</c></rc>
    <rc><c>Ag</c><c>   1</c></rc>
    <rc><c>Ag</c><c>   1</c></rc>
    <rc><c>Ag</c><c>   1</c></rc>
    <rc><c>Ag</c><c>   1</c></rc>
    <rc><c>Se</c><c>   2</c></rc>
    <rc><c>Se</c><c>   2</c></rc>
    <rc><c>Se</c><c>   2</c></rc>
    <rc><c>Se</c><c>   2</c></rc>
    <rc><c>Se</c><c>   2</c></rc>
    <rc><c>Se</c><c>   2</c></rc>
    <rc><c>Se</c><c>   2</c></rc>
    <rc><c>Se</c><c>   2</c></rc>
    <rc><c>Se</c><c>   2</c></rc>
    <rc><c>Se</c><c>   2</c></rc>
    <rc><c>Se</c><c>   2</c></rc>
    <rc><c>Se</c><c>   2</c></rc>
    <rc><c>Se</c><c>   2</c></rc>
    <rc><c>Se</c><c>   2</c></rc>
    <rc><c>Se</c><c>   2</c></rc>
    <rc><c>Se</c><c>   2</c></rc>
    <rc><c>Se</c><c>   2</c></rc>
    <rc><c>Se</c><c>   2</c></rc>
    <rc><c>Se</c><c>   2</c></rc>
    <rc><c>Se</c><c>   2</c></rc>
    <rc><c>Se</c><c>   2</c></rc>
    <rc><c>Se</c><c>   2</c></rc>
    <rc><c>Se</c><c>   2</c></rc>
    <rc><c>Se</c><c>   2</c></rc>
    <rc><c>Se</c><c>   2</c></rc>
    <rc><c>Se</c><c>   2</c></rc>
    <rc><c>Se</c><c>   2</c></rc>
    <rc><c>Se</c><c>   2</c></rc>
    <rc><c>Se</c><c>   2</c></rc>
    <rc><c>Se</c><c>   2</c></rc>
    <rc><c>Se</c><c>   2</c></rc>
    <rc><c>Se</c><c>   2</c></rc>
    <rc><c>Se</c><c>   2</c></rc>
    <rc><c>Se</c><c>   2</c></rc>
    <rc><c>Se</c><c>   2</c></rc>
    <rc><c>Se</c><c>   2</c></rc>
    <rc><c>Se</c><c>   2</c></rc>
    <rc><c>Se</c><c>   2</c></rc>
    <rc><c>Se</c><c>   2</c></rc>
    <rc><c>Se</c><c>   2</c></rc>
    <rc><c>Se</c><c>   2</c></rc>
    <rc><c>Se</c><c>   2</c></rc>
    <rc><c>Se</c><c>   2</c></rc>
    <rc><c>Se</c><c>   2</c></rc>
    <rc><c>Se</c><c>   2</c></rc>
    <rc><c>Se</c><c>   2</c></rc>
    <rc><c>Se</c><c>   2</c></rc>
    <rc><c>Se</c><c>   2</c></rc>
   </set>
  </array>
  <array name="atomtypes" >
   <dimension dim="1">type</dimension>
   <field type="int">atomspertype</field>
   <field type="string">element</field>
   <field>mass</field>
   <field>valence</field>
   <field type="string">pseudopotential</field>
   <set>
    <rc><c>  96</c><c>Ag</c><c>    107.86800000</c><c>     11.00000000</c><c>  PAW_PBE Ag 02Apr2005                  </c></rc>
    <rc><c>  48</c><c>Se</c><c>     78.96000000</c><c>      6.00000000</c><c>  PAW_PBE Se 06Sep2000                  </c></rc>
   </set>
  </array>
 </atominfo>
 <structure name="initialpos" >
  <crystal>
   <varray name="basis" >
    <v>      14.01039598       0.00139138       0.00000000 </v>
    <v>      -0.00150196      13.76691092       0.00000000 </v>
    <v>       0.00000000       0.00000000      14.55019386 </v>
   </varray>
   <i name="volume">   2806.43958022 </i>
   <varray name="rec_basis" >
    <v>       0.07137557       0.00000779       0.00000000 </v>
    <v>      -0.00000721       0.07263794       0.00000000 </v>
    <v>       0.00000000       0.00000000       0.06872761 </v>
   </varray>
  </crystal>
  <varray name="positions" >
   <v>       0.42987898       0.17239715       0.33247735 </v>
   <v>       0.92987898       0.17167077       0.33247735 </v>
   <v>       0.42987898       0.67167077       0.33247735 </v>
   <v>       0.92987898       0.67167077       0.33247735 </v>
   <v>       0.42987898       0.17167077       0.66581068 </v>
   <v>       0.92987898       0.17167077       0.66581068 </v>
   <v>       0.42987898       0.67167077       0.66581068 </v>
   <v>       0.92987898       0.67167077       0.66581068 </v>
   <v>       0.42987898       0.17167077       0.99914401 </v>
   <v>       0.92987898       0.17167077       0.99914401 </v>
   <v>       0.42987898       0.67167077       0.99914401 </v>
   <v>       0.92987898       0.67167077       0.99914401 </v>
   <v>       0.07012102       0.32832923       0.33247735 </v>
   <v>       0.57012102       0.32832923       0.33247735 </v>
   <v>       0.07012102       0.82832923       0.33247735 </v>
   <v>       0.57012102       0.82832923       0.33247735 </v>
   <v>       0.07012102       0.32832923       0.66581068 </v>
   <v>       0.57012102       0.32832923       0.66581068 </v>
   <v>       0.07012102       0.82832923       0.66581068 </v>
   <v>       0.57012102       0.82832923       0.66581068 </v>
   <v>       0.07012102       0.32832923       0.99914401 </v>
   <v>       0.57012102       0.32832923       0.99914401 </v>
   <v>       0.07012102       0.82832923       0.99914401 </v>
   <v>       0.57012102       0.82832923       0.99914401 </v>
   <v>       0.32012053       0.42167367       0.05641075 </v>
   <v>       0.82012053       0.42167367       0.05641075 </v>
   <v>       0.32012053       0.92167367       0.05641075 </v>
   <v>       0.82012053       0.92167367       0.05641075 </v>
   <v>       0.32012053       0.42167367       0.38974408 </v>
   <v>       0.82012053       0.42167367       0.38974408 </v>
   <v>       0.32012053       0.92167367       0.38974408 </v>
   <v>       0.82012053       0.92167367       0.38974408 </v>
   <v>       0.32012053       0.42167367       0.72307741 </v>
   <v>       0.82012053       0.42167367       0.72307741 </v>
   <v>       0.32012053       0.92167367       0.72307741 </v>
   <v>       0.82012053       0.92167367       0.72307741 </v>
   <v>       0.17987947       0.07832633       0.05641075 </v>
   <v>       0.67987947       0.07832633       0.05641075 </v>
   <v>       0.17987947       0.57832633       0.05641075 </v>
   <v>       0.67987947       0.57832633       0.05641075 </v>
   <v>       0.17987947       0.07832633       0.38974408 </v>
   <v>       0.67987947       0.07832633       0.38974408 </v>
   <v>       0.17987947       0.57832633       0.38974408 </v>
   <v>       0.67987947       0.57832633       0.38974408 </v>
   <v>       0.17987947       0.07832633       0.72307741 </v>
   <v>       0.67987947       0.07832633       0.72307741 </v>
   <v>       0.17987947       0.57832633       0.72307741 </v>
   <v>       0.67987947       0.57832633       0.72307741 </v>
   <v>       0.17987776       0.32832369       0.16580856 </v>
   <v>       0.67987776       0.32832369       0.16580856 </v>
   <v>       0.17987776       0.82832369       0.16580856 </v>
   <v>       0.67987776       0.82832369       0.16580856 </v>
   <v>       0.17987776       0.32832369       0.49914189 </v>
   <v>       0.67987776       0.32832369       0.49914189 </v>
   <v>       0.17987776       0.82832369       0.49914189 </v>
   <v>       0.67987776       0.82832369       0.49914189 </v>
   <v>       0.17987776       0.32832369       0.83247522 </v>
   <v>       0.67987776       0.32832369       0.83247522 </v>
   <v>       0.17987776       0.82832369       0.83247522 </v>
   <v>       0.67987776       0.82832369       0.83247522 </v>
   <v>       0.32012224       0.17167631       0.16580856 </v>
   <v>       0.82012224       0.17167631       0.16580856 </v>
   <v>       0.32012224       0.67167631       0.16580856 </v>
   <v>       0.82012224       0.67167631       0.16580856 </v>
   <v>       0.32012224       0.17167631       0.49914189 </v>
   <v>       0.82012224       0.17167631       0.49914189 </v>
   <v>       0.32012224       0.67167631       0.49914189 </v>
   <v>       0.82012224       0.67167631       0.49914189 </v>
   <v>       0.32012224       0.17167631       0.83247522 </v>
   <v>       0.82012224       0.17167631       0.83247522 </v>
   <v>       0.32012224       0.67167631       0.83247522 </v>
   <v>       0.82012224       0.67167631       0.83247522 </v>
   <v>       0.42987656       0.42167494       0.22308000 </v>
   <v>       0.92987656       0.42167494       0.22308000 </v>
   <v>       0.42987656       0.92167494       0.22308000 </v>
   <v>       0.92987656       0.92167494       0.22308000 </v>
   <v>       0.42987656       0.42167494       0.55641333 </v>
   <v>       0.92987656       0.42167494       0.55641333 </v>
   <v>       0.42987656       0.92167494       0.55641333 </v>
   <v>       0.92987656       0.92167494       0.55641333 </v>
   <v>       0.42987656       0.42167494       0.88974666 </v>
   <v>       0.92987656       0.42167494       0.88974666 </v>
   <v>       0.42987656       0.92167494       0.88974666 </v>
   <v>       0.92987656       0.92167494       0.88974666 </v>
   <v>       0.07012344       0.07832506       0.22308000 </v>
   <v>       0.57012344       0.07832506       0.22308000 </v>
   <v>       0.07012344       0.57832506       0.22308000 </v>
   <v>       0.57012344       0.57832506       0.22308000 </v>
   <v>       0.07012344       0.07832506       0.55641333 </v>
   <v>       0.57012344       0.07832506       0.55641333 </v>
   <v>       0.07012344       0.57832506       0.55641333 </v>
   <v>       0.57012344       0.57832506       0.55641333 </v>
   <v>       0.07012344       0.07832506       0.88974666 </v>
   <v>       0.57012344       0.07832506       0.88974666 </v>
   <v>       0.07012344       0.57832506       0.88974666 </v>
   <v>       0.57012344       0.57832506       0.88974666 </v>
   <v>       0.00000000       0.00000000       0.05479365 </v>
   <v>       0.50000000       0.00000000       0.05479365 </v>
   <v>       0.00000000       0.50000000       0.05479365 </v>
   <v>       0.50000000       0.50000000       0.05479365 </v>
   <v>       0.00000000       0.00000000       0.38812698 </v>
   <v>       0.50000000       0.00000000       0.38812698 </v>
   <v>       0.00000000       0.50000000       0.38812698 </v>
   <v>       0.50000000       0.50000000       0.38812698 </v>
   <v>       0.00000000       0.00000000       0.72146032 </v>
   <v>       0.50000000       0.00000000       0.72146032 </v>
   <v>       0.00000000       0.50000000       0.72146032 </v>
   <v>       0.50000000       0.50000000       0.72146032 </v>
   <v>       0.25000000       0.00000000       0.22145206 </v>
   <v>       0.75000000       0.00000000       0.22145206 </v>
   <v>       0.25000000       0.50000000       0.22145206 </v>
   <v>       0.75000000       0.50000000       0.22145206 </v>
   <v>       0.25000000       0.00000000       0.55478539 </v>
   <v>       0.75000000       0.00000000       0.55478539 </v>
   <v>       0.25000000       0.50000000       0.55478539 </v>
   <v>       0.75000000       0.50000000       0.55478539 </v>
   <v>       0.25000000       0.00000000       0.88811873 </v>
   <v>       0.75000000       0.00000000       0.88811873 </v>
   <v>       0.25000000       0.50000000       0.88811873 </v>
   <v>       0.75000000       0.50000000       0.88811873 </v>
   <v>       0.00000000       0.25000000       0.16743769 </v>
   <v>       0.50000000       0.25000000       0.16743769 </v>
   <v>       0.00000000       0.75000000       0.16743769 </v>
   <v>       0.50000000       0.75000000       0.16743769 </v>
   <v>       0.00000000       0.25000000       0.50077102 </v>
   <v>       0.50000000       0.25000000       0.50077102 </v>
   <v>       0.00000000       0.75000000       0.50077102 </v>
   <v>       0.50000000       0.75000000       0.50077102 </v>
   <v>       0.00000000       0.25000000       0.83410435 </v>
   <v>       0.50000000       0.25000000       0.83410435 </v>
   <v>       0.00000000       0.75000000       0.83410435 </v>
   <v>       0.50000000       0.75000000       0.83410435 </v>
   <v>       0.25000000       0.25000000       0.00076332 </v>
   <v>       0.75000000       0.25000000       0.00076332 </v>
   <v>       0.25000000       0.75000000       0.00076332 </v>
   <v>       0.75000000       0.75000000       0.00076332 </v>
   <v>       0.25000000       0.25000000       0.33409665 </v>
   <v>       0.75000000       0.25000000       0.33409665 </v>
   <v>       0.25000000       0.75000000       0.33409665 </v>
   <v>       0.75000000       0.75000000       0.33409665 </v>
   <v>       0.25000000       0.25000000       0.66742999 </v>
   <v>       0.75000000       0.25000000       0.66742999 </v>
   <v>       0.25000000       0.75000000       0.66742999 </v>
   <v>       0.75000000       0.75000000       0.66742999 </v>
  </varray>
 </structure>
 <calculation>
  <scstep>
   <time name="dav">  946.22  948.47</time>
   <time name="total">  949.66  951.92</time>
   <energy>
    <i name="alphaZ">   4890.97834259 </i>
    <i name="ewald"> -98843.10208463 </i>
    <i name="hartreedc"> -25789.17416720 </i>
    <i name="XCdc">   -889.86198780 </i>
    <i name="pawpsdc"> 106286.73805879 </i>
    <i name="pawaedc">-101298.59693205 </i>
    <i name="eentropy">     -0.04302984 </i>
    <i name="bandstr">  14366.15227429 </i>
    <i name="atom"> 111881.97810035 </i>
    <i name="e_fr_energy">  10605.06857449 </i>
    <i name="e_wo_entrp">  10605.11160433 </i>
    <i name="e_0_energy">  10605.09008941 </i>
   </energy>
  </scstep>
  <scstep>
   <time name="dav">  983.55  985.90</time>
   <time name="total">  983.56  985.90</time>
   <energy>
    <i name="e_fr_energy">    150.65119138 </i>
    <i name="e_wo_entrp">    150.66273594 </i>
    <i name="e_0_energy">    150.65696366 </i>
   </energy>
  </scstep>
  <scstep>
   <time name="dav"> 1020.73 1023.15</time>
   <time name="total"> 1020.73 1023.15</time>
   <energy>
    <i name="e_fr_energy">   -518.01622783 </i>
    <i name="e_wo_entrp">   -518.01009171 </i>
    <i name="e_0_energy">   -518.01315977 </i>
   </energy>
  </scstep>
  <scstep>
   <time name="dav">  992.68  995.08</time>
   <time name="total">  992.68  995.08</time>
   <energy>
    <i name="e_fr_energy">   -535.41849258 </i>
    <i name="e_wo_entrp">   -535.41302511 </i>
    <i name="e_0_energy">   -535.41575885 </i>
   </energy>
  </scstep>
  <scstep>
   <time name="dav"> 1026.06 1028.47</time>
   <time name="total"> 1040.36 1042.81</time>
   <energy>
    <i name="e_fr_energy">   -535.67098453 </i>
    <i name="e_wo_entrp">   -535.66550885 </i>
    <i name="e_0_energy">   -535.66824669 </i>
   </energy>
  </scstep>
  <scstep>
   <time name="dav">  980.72  983.04</time>
   <time name="total">  998.44 1000.80</time>
   <energy>
    <i name="e_fr_energy">   -504.98322045 </i>
    <i name="e_wo_entrp">   -504.96772906 </i>
    <i name="e_0_energy">   -504.97547475 </i>
   </energy>
  </scstep>
  <scstep>
   <time name="dav">  972.55  974.85</time>
   <time name="total">  990.39  992.73</time>
   <energy>
    <i name="e_fr_energy">   -505.65764273 </i>
    <i name="e_wo_entrp">   -505.64187730 </i>
    <i name="e_0_energy">   -505.64976001 </i>
   </energy>
  </scstep>
  <scstep>
   <time name="dav"> 1012.78 1015.18</time>
   <time name="total"> 1030.98 1033.43</time>
   <energy>
    <i name="e_fr_energy">   -505.18199466 </i>
    <i name="e_wo_entrp">   -505.16737609 </i>
    <i name="e_0_energy">   -505.17468537 </i>
   </energy>
  </scstep>
  <scstep>
   <time name="dav">  988.96  991.31</time>
   <time name="total"> 1006.91 1009.31</time>
   <energy>
    <i name="e_fr_energy">   -505.12632876 </i>
    <i name="e_wo_entrp">   -505.11109868 </i>
    <i name="e_0_energy">   -505.11871372 </i>
   </energy>
  </scstep>
  <scstep>
   <time name="dav">  992.93  995.29</time>
   <time name="total"> 1012.80 1015.21</time>
   <energy>
    <i name="e_fr_energy">   -505.12845304 </i>
    <i name="e_wo_entrp">   -505.11316515 </i>
    <i name="e_0_energy">   -505.12080909 </i>
   </energy>
  </scstep>
  <scstep>
   <time name="dav">  999.45 1001.81</time>
   <time name="total"> 1017.39 1019.79</time>
   <energy>
    <i name="e_fr_energy">   -505.12832947 </i>
    <i name="e_wo_entrp">   -505.11310976 </i>
    <i name="e_0_energy">   -505.12071961 </i>
   </energy>
  </scstep>
  <scstep>
   <time name="dav">  998.26 1000.63</time>
   <time name="total"> 1019.12 1021.53</time>
   <energy>
    <i name="e_fr_energy">   -505.12828706 </i>
    <i name="e_wo_entrp">   -505.11304708 </i>
    <i name="e_0_energy">   -505.12066707 </i>
   </energy>
  </scstep>
  <scstep>
   <time name="dav"> 1062.91 1065.42</time>
   <time name="total"> 1081.28 1083.85</time>
   <energy>
    <i name="e_fr_energy">   -505.12828710 </i>
    <i name="e_wo_entrp">   -505.11305004 </i>
    <i name="e_0_energy">   -505.12066857 </i>
   </energy>
  </scstep>
  <scstep>
   <time name="dav">  994.89  997.25</time>
   <time name="total"> 1013.08 1015.48</time>
   <energy>
    <i name="e_fr_energy">   -505.12828597 </i>
    <i name="e_wo_entrp">   -505.11305000 </i>
    <i name="e_0_energy">   -505.12066798 </i>
   </energy>
  </scstep>
  <scstep>
   <time name="dav"> 1016.98 1019.38</time>
   <time name="total"> 1035.21 1037.66</time>
   <energy>
    <i name="e_fr_energy">   -505.12828446 </i>
    <i name="e_wo_entrp">   -505.11304871 </i>
    <i name="e_0_energy">   -505.12066659 </i>
   </energy>
  </scstep>
  <scstep>
   <time name="dav">  912.72  914.89</time>
   <time name="total">  930.56  932.78</time>
   <energy>
    <i name="e_fr_energy">   -505.12828447 </i>
    <i name="e_wo_entrp">   -505.11304892 </i>
    <i name="e_0_energy">   -505.12066669 </i>
   </energy>
  </scstep>
  <scstep>
   <time name="dav">  618.31  619.80</time>
   <time name="total">  636.16  637.70</time>
   <energy>
    <i name="e_fr_energy">   -505.12828449 </i>
    <i name="e_wo_entrp">   -505.11304887 </i>
    <i name="e_0_energy">   -505.12066668 </i>
   </energy>
  </scstep>
  <scstep>
   <time name="dav">  609.35  610.79</time>
   <time name="total">  627.58  629.06</time>
   <energy>
    <i name="e_fr_energy">   -505.12828447 </i>
    <i name="e_wo_entrp">   -505.11304882 </i>
    <i name="e_0_energy">   -505.12066665 </i>
   </energy>
  </scstep>
  <scstep>
   <time name="dav">  569.55  570.90</time>
   <time name="total">  572.99  574.35</time>
   <energy>
    <i name="alphaZ">   4890.97834259 </i>
    <i name="ewald"> -98843.10208463 </i>
    <i name="hartreedc"> -24658.00290547 </i>
    <i name="XCdc">   -922.44843641 </i>
    <i name="pawpsdc"> 122252.59145293 </i>
    <i name="pawaedc">-117444.84871228 </i>
    <i name="eentropy">     -0.01523566 </i>
    <i name="bandstr">   2337.74119412 </i>
    <i name="atom"> 111881.97810035 </i>
    <i name="e_fr_energy">   -505.12828447 </i>
    <i name="e_wo_entrp">   -505.11304881 </i>
    <i name="e_0_energy">   -505.12066664 </i>
   </energy>
  </scstep>
  <structure>
   <crystal>
    <varray name="basis" >
     <v>      14.01039598       0.00139138       0.00000000 </v>
     <v>      -0.00150196      13.76691092       0.00000000 </v>
     <v>       0.00000000       0.00000000      14.55019386 </v>
    </varray>
    <i name="volume">   2806.43958022 </i>
    <varray name="rec_basis" >
     <v>       0.07137557       0.00000779       0.00000000 </v>
     <v>      -0.00000721       0.07263794       0.00000000 </v>
     <v>       0.00000000       0.00000000       0.06872761 </v>
    </varray>
   </crystal>
   <varray name="positions" >
    <v>       0.42987898       0.17239715       0.33247735 </v>
    <v>       0.92987898       0.17167077       0.33247735 </v>
    <v>       0.42987898       0.67167077       0.33247735 </v>
    <v>       0.92987898       0.67167077       0.33247735 </v>
    <v>       0.42987898       0.17167077       0.66581068 </v>
    <v>       0.92987898       0.17167077       0.66581068 </v>
    <v>       0.42987898       0.67167077       0.66581068 </v>
    <v>       0.92987898       0.67167077       0.66581068 </v>
    <v>       0.42987898       0.17167077       0.99914401 </v>
    <v>       0.92987898       0.17167077       0.99914401 </v>
    <v>       0.42987898       0.67167077       0.99914401 </v>
    <v>       0.92987898       0.67167077       0.99914401 </v>
    <v>       0.07012102       0.32832923       0.33247735 </v>
    <v>       0.57012102       0.32832923       0.33247735 </v>
    <v>       0.07012102       0.82832923       0.33247735 </v>
    <v>       0.57012102       0.82832923       0.33247735 </v>
    <v>       0.07012102       0.32832923       0.66581068 </v>
    <v>       0.57012102       0.32832923       0.66581068 </v>
    <v>       0.07012102       0.82832923       0.66581068 </v>
    <v>       0.57012102       0.82832923       0.66581068 </v>
    <v>       0.07012102       0.32832923       0.99914401 </v>
    <v>       0.57012102       0.32832923       0.99914401 </v>
    <v>       0.07012102       0.82832923       0.99914401 </v>
    <v>       0.57012102       0.82832923       0.99914401 </v>
    <v>       0.32012053       0.42167367       0.05641075 </v>
    <v>       0.82012053       0.42167367       0.05641075 </v>
    <v>       0.32012053       0.92167367       0.05641075 </v>
    <v>       0.82012053       0.92167367       0.05641075 </v>
    <v>       0.32012053       0.42167367       0.38974408 </v>
    <v>       0.82012053       0.42167367       0.38974408 </v>
    <v>       0.32012053       0.92167367       0.38974408 </v>
    <v>       0.82012053       0.92167367       0.38974408 </v>
    <v>       0.32012053       0.42167367       0.72307741 </v>
    <v>       0.82012053       0.42167367       0.72307741 </v>
    <v>       0.32012053       0.92167367       0.72307741 </v>
    <v>       0.82012053       0.92167367       0.72307741 </v>
    <v>       0.17987947       0.07832633       0.05641075 </v>
    <v>       0.67987947       0.07832633       0.05641075 </v>
    <v>       0.17987947       0.57832633       0.05641075 </v>
    <v>       0.67987947       0.57832633       0.05641075 </v>
    <v>       0.17987947       0.07832633       0.38974408 </v>
    <v>       0.67987947       0.07832633       0.38974408 </v>
    <v>       0.17987947       0.57832633       0.38974408 </v>
    <v>       0.67987947       0.57832633       0.38974408 </v>
    <v>       0.17987947       0.07832633       0.72307741 </v>
    <v>       0.67987947       0.07832633       0.72307741 </v>
    <v>       0.17987947       0.57832633       0.72307741 </v>
    <v>       0.67987947       0.57832633       0.72307741 </v>
    <v>       0.17987776       0.32832369       0.16580856 </v>
    <v>       0.67987776       0.32832369       0.16580856 </v>
    <v>       0.17987776       0.82832369       0.16580856 </v>
    <v>       0.67987776       0.82832369       0.16580856 </v>
    <v>       0.17987776       0.32832369       0.49914189 </v>
    <v>       0.67987776       0.32832369       0.49914189 </v>
    <v>       0.17987776       0.82832369       0.49914189 </v>
    <v>       0.67987776       0.82832369       0.49914189 </v>
    <v>       0.17987776       0.32832369       0.83247522 </v>
    <v>       0.67987776       0.32832369       0.83247522 </v>
    <v>       0.17987776       0.82832369       0.83247522 </v>
    <v>       0.67987776       0.82832369       0.83247522 </v>
    <v>       0.32012224       0.17167631       0.16580856 </v>
    <v>       0.82012224       0.17167631       0.16580856 </v>
    <v>       0.32012224       0.67167631       0.16580856 </v>
    <v>       0.82012224       0.67167631       0.16580856 </v>
    <v>       0.32012224       0.17167631       0.49914189 </v>
    <v>       0.82012224       0.17167631       0.49914189 </v>
    <v>       0.32012224       0.67167631       0.49914189 </v>
    <v>       0.82012224       0.67167631       0.49914189 </v>
    <v>       0.32012224       0.17167631       0.83247522 </v>
    <v>       0.82012224       0.17167631       0.83247522 </v>
    <v>       0.32012224       0.67167631       0.83247522 </v>
    <v>       0.82012224       0.67167631       0.83247522 </v>
    <v>       0.42987656       0.42167494       0.22308000 </v>
    <v>       0.92987656       0.42167494       0.22308000 </v>
    <v>       0.42987656       0.92167494       0.22308000 </v>
    <v>       0.92987656       0.92167494       0.22308000 </v>
    <v>       0.42987656       0.42167494       0.55641333 </v>
    <v>       0.92987656       0.42167494       0.55641333 </v>
    <v>       0.42987656       0.92167494       0.55641333 </v>
    <v>       0.92987656       0.92167494       0.55641333 </v>
    <v>       0.42987656       0.42167494       0.88974666 </v>
    <v>       0.92987656       0.42167494       0.88974666 </v>
    <v>       0.42987656       0.92167494       0.88974666 </v>
    <v>       0.92987656       0.92167494       0.88974666 </v>
    <v>       0.07012344       0.07832506       0.22308000 </v>
    <v>       0.57012344       0.07832506       0.22308000 </v>
    <v>       0.07012344       0.57832506       0.22308000 </v>
    <v>       0.57012344       0.57832506       0.22308000 </v>
    <v>       0.07012344       0.07832506       0.55641333 </v>
    <v>       0.57012344       0.07832506       0.55641333 </v>
    <v>       0.07012344       0.57832506       0.55641333 </v>
    <v>       0.57012344       0.57832506       0.55641333 </v>
    <v>       0.07012344       0.07832506       0.88974666 </v>
    <v>       0.57012344       0.07832506       0.88974666 </v>
    <v>       0.07012344       0.57832506       0.88974666 </v>
    <v>       0.57012344       0.57832506       0.88974666 </v>
    <v>       0.00000000       0.00000000       0.05479365 </v>
    <v>       0.50000000       0.00000000       0.05479365 </v>
    <v>       0.00000000       0.50000000       0.05479365 </v>
    <v>       0.50000000       0.50000000       0.05479365 </v>
    <v>       0.00000000       0.00000000       0.38812698 </v>
    <v>       0.50000000       0.00000000       0.38812698 </v>
    <v>       0.00000000       0.50000000       0.38812698 </v>
    <v>       0.50000000       0.50000000       0.38812698 </v>
    <v>       0.00000000       0.00000000       0.72146032 </v>
    <v>       0.50000000       0.00000000       0.72146032 </v>
    <v>       0.00000000       0.50000000       0.72146032 </v>
    <v>       0.50000000       0.50000000       0.72146032 </v>
    <v>       0.25000000       0.00000000       0.22145206 </v>
    <v>       0.75000000       0.00000000       0.22145206 </v>
    <v>       0.25000000       0.50000000       0.22145206 </v>
    <v>       0.75000000       0.50000000       0.22145206 </v>
    <v>       0.25000000       0.00000000       0.55478539 </v>
    <v>       0.75000000       0.00000000       0.55478539 </v>
    <v>       0.25000000       0.50000000       0.55478539 </v>
    <v>       0.75000000       0.50000000       0.55478539 </v>
    <v>       0.25000000       0.00000000       0.88811873 </v>
    <v>       0.75000000       0.00000000       0.88811873 </v>
    <v>       0.25000000       0.50000000       0.88811873 </v>
    <v>       0.75000000       0.50000000       0.88811873 </v>
    <v>       0.00000000       0.25000000       0.16743769 </v>
    <v>       0.50000000       0.25000000       0.16743769 </v>
    <v>       0.00000000       0.75000000       0.16743769 </v>
    <v>       0.50000000       0.75000000       0.16743769 </v>
    <v>       0.00000000       0.25000000       0.50077102 </v>
    <v>       0.50000000       0.25000000       0.50077102 </v>
    <v>       0.00000000       0.75000000       0.50077102 </v>
    <v>       0.50000000       0.75000000       0.50077102 </v>
    <v>       0.00000000       0.25000000       0.83410435 </v>
    <v>       0.50000000       0.25000000       0.83410435 </v>
    <v>       0.00000000       0.75000000       0.83410435 </v>
    <v>       0.50000000       0.75000000       0.83410435 </v>
    <v>       0.25000000       0.25000000       0.00076332 </v>
    <v>       0.75000000       0.25000000       0.00076332 </v>
    <v>       0.25000000       0.75000000       0.00076332 </v>
    <v>       0.75000000       0.75000000       0.00076332 </v>
    <v>       0.25000000       0.25000000       0.33409665 </v>
    <v>       0.75000000       0.25000000       0.33409665 </v>
    <v>       0.25000000       0.75000000       0.33409665 </v>
    <v>       0.75000000       0.75000000       0.33409665 </v>
    <v>       0.25000000       0.25000000       0.66742999 </v>
    <v>       0.75000000       0.25000000       0.66742999 </v>
    <v>       0.25000000       0.75000000       0.66742999 </v>
    <v>       0.75000000       0.75000000       0.66742999 </v>
   </varray>
  </structure>
  <varray name="forces" >
   <v>       0.01059496      -0.02557330       0.00375638 </v>
   <v>       0.00004568       0.00004341      -0.00003842 </v>
   <v>       0.00002823       0.00028139      -0.00001085 </v>
   <v>      -0.00007908       0.00011557      -0.00003727 </v>
   <v>      -0.00034893      -0.00020193       0.00020217 </v>
   <v>       0.00003833       0.00004859      -0.00003927 </v>
   <v>       0.00007072       0.00017605      -0.00025194 </v>
   <v>      -0.00001905       0.00010103      -0.00004584 </v>
   <v>      -0.00032620      -0.00020175      -0.00023761 </v>
   <v>       0.00002517       0.00004862      -0.00005834 </v>
   <v>       0.00002421       0.00017558      -0.00000403 </v>
   <v>      -0.00001199       0.00010114      -0.00002976 </v>
   <v>      -0.00057758       0.00026468      -0.00001096 </v>
   <v>       0.00617321       0.00599413       0.00017993 </v>
   <v>       0.00003883      -0.00005214      -0.00001791 </v>
   <v>      -0.00032965       0.00174264       0.00084561 </v>
   <v>       0.00000519      -0.00003237      -0.00001419 </v>
   <v>       0.00056521       0.00041323       0.00082537 </v>
   <v>       0.00003008      -0.00006762      -0.00003634 </v>
   <v>       0.00000017      -0.00010525      -0.00011113 </v>
   <v>       0.00001584      -0.00003233      -0.00002013 </v>
   <v>       0.00050273       0.00041201      -0.00069548 </v>
   <v>       0.00002815      -0.00006755      -0.00003088 </v>
   <v>       0.00005689      -0.00010472      -0.00002895 </v>
   <v>      -0.00000085       0.00002446       0.00005095 </v>
   <v>       0.00004988       0.00005670       0.00005575 </v>
   <v>       0.00003145       0.00002389       0.00013342 </v>
   <v>      -0.00000777       0.00005665       0.00014522 </v>
   <v>      -0.00009181       0.00057096       0.00024197 </v>
   <v>       0.00006941       0.00003535       0.00005821 </v>
   <v>       0.00089960       0.00057385      -0.00012520 </v>
   <v>      -0.00000363       0.00003523       0.00004030 </v>
   <v>       0.00002707       0.00002493       0.00006716 </v>
   <v>       0.00005036       0.00004693       0.00005298 </v>
   <v>       0.00004927       0.00002497      -0.00000159 </v>
   <v>      -0.00001447       0.00004693      -0.00001684 </v>
   <v>      -0.00002055      -0.00005762       0.00009803 </v>
   <v>      -0.00004818      -0.00005720       0.00017802 </v>
   <v>      -0.00002567       0.00001405       0.00000710 </v>
   <v>       0.00001728       0.00001413       0.00007468 </v>
   <v>      -0.00007615      -0.00031939       0.00001205 </v>
   <v>      -0.00101425      -0.00031942      -0.00015582 </v>
   <v>      -0.00003938       0.00008315       0.00005851 </v>
   <v>       0.00004655       0.00008282       0.00005687 </v>
   <v>      -0.00002131      -0.00007615       0.00005499 </v>
   <v>      -0.00003239      -0.00007628      -0.00004184 </v>
   <v>      -0.00000518       0.00002333       0.00006261 </v>
   <v>       0.00002853       0.00002297       0.00004153 </v>
   <v>      -0.00008013       0.00005868      -0.00013121 </v>
   <v>       0.00033551       0.00010434      -0.00015706 </v>
   <v>       0.00005464       0.00010091       0.00004098 </v>
   <v>      -0.00003450      -0.00001251       0.00001231 </v>
   <v>      -0.00001944       0.00010454       0.00003621 </v>
   <v>       0.00041057       0.00005759       0.00004300 </v>
   <v>       0.00005079      -0.00001221      -0.00008013 </v>
   <v>      -0.00008890       0.00010166      -0.00011380 </v>
   <v>       0.00000736       0.00000164       0.00000350 </v>
   <v>       0.00010981       0.00000194       0.00001257 </v>
   <v>      -0.00000454      -0.00003722      -0.00002798 </v>
   <v>       0.00001493      -0.00003733      -0.00004508 </v>
   <v>      -0.00058540      -0.00128945      -0.00070811 </v>
   <v>      -0.00000786      -0.00015268      -0.00000072 </v>
   <v>       0.00005776       0.00006521      -0.00000798 </v>
   <v>       0.00000095       0.00003597       0.00001021 </v>
   <v>      -0.00037788      -0.00128678       0.00065971 </v>
   <v>      -0.00005168      -0.00015272      -0.00002710 </v>
   <v>       0.00014585       0.00006539      -0.00000343 </v>
   <v>      -0.00001623       0.00003575      -0.00004544 </v>
   <v>      -0.00005918      -0.00003508      -0.00000206 </v>
   <v>       0.00002235      -0.00004344      -0.00001622 </v>
   <v>       0.00000109       0.00001339      -0.00001610 </v>
   <v>      -0.00000904       0.00002467      -0.00001818 </v>
   <v>      -0.00012795       0.00065524       0.00016046 </v>
   <v>      -0.00000007       0.00004138       0.00000778 </v>
   <v>       0.00022823       0.00065601       0.00085446 </v>
   <v>      -0.00011941       0.00004143       0.00000177 </v>
   <v>      -0.00007775       0.00033215       0.00019721 </v>
   <v>       0.00003184       0.00004215       0.00002791 </v>
   <v>       0.00037719       0.00033194      -0.00063621 </v>
   <v>      -0.00005453       0.00004300       0.00000389 </v>
   <v>      -0.00000314       0.00004390       0.00001046 </v>
   <v>       0.00001875       0.00001729       0.00002765 </v>
   <v>       0.00003408       0.00004355       0.00003376 </v>
   <v>       0.00001484       0.00001768       0.00002519 </v>
   <v>       0.00008406      -0.00002999      -0.00001003 </v>
   <v>      -0.00567658       0.00133381       0.00586629 </v>
   <v>      -0.00009957       0.00002887       0.00002390 </v>
   <v>      -0.00000180       0.00011429      -0.00000818 </v>
   <v>       0.00004553      -0.00003776      -0.00002929 </v>
   <v>      -0.00050585      -0.00030283      -0.00085338 </v>
   <v>      -0.00002419       0.00001279       0.00001772 </v>
   <v>      -0.00004586       0.00031268      -0.00000611 </v>
   <v>      -0.00001842      -0.00005035       0.00003206 </v>
   <v>      -0.00004529      -0.00004572       0.00005287 </v>
   <v>      -0.00001838       0.00001196       0.00001886 </v>
   <v>       0.00000330       0.00007515       0.00006656 </v>
   <v>       0.00004647       0.00002271      -0.00014175 </v>
   <v>      -0.00008437       0.00013321       0.00012830 </v>
   <v>       0.00002903      -0.00003622      -0.00008556 </v>
   <v>       0.00002631      -0.00035851      -0.00007782 </v>
   <v>      -0.00007566      -0.00001770      -0.00006970 </v>
   <v>      -0.00570460       0.01428807      -0.00872501 </v>
   <v>       0.00001268       0.00000557      -0.00008810 </v>
   <v>       0.00016232       0.00026566       0.00006585 </v>
   <v>       0.00005340       0.00000736      -0.00002499 </v>
   <v>       0.00001615       0.00001868      -0.00008868 </v>
   <v>      -0.00001381      -0.00007655      -0.00010357 </v>
   <v>      -0.00007204      -0.00041164      -0.00026258 </v>
   <v>       0.00041363       0.00033312       0.00036397 </v>
   <v>       0.00045667      -0.00003653      -0.00016042 </v>
   <v>       0.00014361      -0.00018385       0.00003608 </v>
   <v>      -0.00007796      -0.00003182       0.00000536 </v>
   <v>       0.00002529       0.00035076      -0.00025202 </v>
   <v>       0.00031402      -0.00000741       0.00021322 </v>
   <v>      -0.00007852      -0.00002036       0.00003982 </v>
   <v>      -0.00018663      -0.00007715       0.00002863 </v>
   <v>       0.00005489       0.00006056       0.00000412 </v>
   <v>      -0.00000267       0.00006906       0.00001511 </v>
   <v>      -0.00003413       0.00000378      -0.00001717 </v>
   <v>      -0.00006418      -0.00001776       0.00002268 </v>
   <v>       0.00012105       0.00003955       0.00007674 </v>
   <v>       0.00213338      -0.00009390      -0.00384645 </v>
   <v>       0.00007692      -0.00002985      -0.00006565 </v>
   <v>      -0.00000482      -0.00021365      -0.00013082 </v>
   <v>       0.00016750       0.00005826      -0.00015880 </v>
   <v>       0.00110337      -0.00015466       0.00143196 </v>
   <v>       0.00002541      -0.00001030      -0.00000551 </v>
   <v>      -0.00022733      -0.00091463       0.00059934 </v>
   <v>      -0.00001264       0.00000330      -0.00004157 </v>
   <v>       0.00002497      -0.00009204      -0.00008731 </v>
   <v>      -0.00002637      -0.00002428      -0.00002854 </v>
   <v>      -0.00004113      -0.00009220      -0.00010708 </v>
   <v>       0.00002312       0.00001845       0.00002974 </v>
   <v>      -0.00026553       0.00010051       0.00014320 </v>
   <v>       0.00000062      -0.00004904       0.00007293 </v>
   <v>       0.00001757      -0.00001078       0.00003965 </v>
   <v>      -0.00847476       0.00142744       0.00018990 </v>
   <v>      -0.00008354       0.00014675       0.00018128 </v>
   <v>      -0.00007838      -0.00012517       0.00008261 </v>
   <v>       0.00008955      -0.00016919       0.00000168 </v>
   <v>       0.00007663       0.00006168       0.00008465 </v>
   <v>      -0.00027060       0.00008787      -0.00002692 </v>
   <v>      -0.00006238       0.00001896       0.00008399 </v>
   <v>       0.00001277      -0.00000135       0.00011246 </v>
  </varray>
  <varray name="stress" >
   <v>      -0.15287905       0.01560226       0.00019237 </v>
   <v>       0.01560236      -0.16649435       0.00418168 </v>
   <v>       0.00019225       0.00418175      -0.15834395 </v>
  </varray>
  <energy>
   <i name="e_fr_energy">   -505.12828447 </i>
   <i name="e_wo_entrp">   -505.12066664 </i>
   <i name="e_0_energy">     -0.01523566 </i>
  </energy>
  <time name="totalsc">19930.7819978.47</time>
  <eigenvalues>
   <array>
    <dimension dim="1">band</dimension>
    <dimension dim="2">kpoint</dimension>
    <dimension dim="3">spin</dimension>
    <field>eigene</field>
    <field>occ</field>
    <set>
     <set comment="spin 1">
      <set comment="kpoint 1">
       <r>   -7.4639    1.0000 </r>
       <r>   -7.2296    1.0000 </r>
       <r>   -7.2294    1.0000 </r>
       <r>   -7.2158    1.0000 </r>
       <r>   -7.2156    1.0000 </r>
       <r>   -7.1646    1.0000 </r>
       <r>   -7.1640    1.0000 </r>
       <r>   -7.0698    1.0000 </r>
       <r>   -7.0697    1.0000 </r>
       <r>   -7.0695    1.0000 </r>
       <r>   -7.0691    1.0000 </r>
       <r>   -7.0094    1.0000 </r>
       <r>   -7.0093    1.0000 </r>
       <r>   -7.0091    1.0000 </r>
       <r>   -7.0085    1.0000 </r>
       <r>   -6.9942    1.0000 </r>
       <r>   -6.9941    1.0000 </r>
       <r>   -6.9938    1.0000 </r>
       <r>   -6.9933    1.0000 </r>
       <r>   -6.9476    1.0000 </r>
       <r>   -6.9353    1.0000 </r>
       <r>   -6.9350    1.0000 </r>
       <r>   -6.9196    1.0000 </r>
       <r>   -6.9195    1.0000 </r>
       <r>   -6.9193    1.0000 </r>
       <r>   -6.9191    1.0000 </r>
       <r>   -6.9191    1.0000 </r>
       <r>   -6.9191    1.0000 </r>
       <r>   -6.9190    1.0000 </r>
       <r>   -6.9178    1.0000 </r>
       <r>   -6.8369    1.0000 </r>
       <r>   -6.8369    1.0000 </r>
       <r>   -6.8366    1.0000 </r>
       <r>   -6.8360    1.0000 </r>
       <r>   -6.8239    1.0000 </r>
       <r>   -6.8183    1.0000 </r>
       <r>   -6.8177    1.0000 </r>
       <r>   -6.7728    1.0000 </r>
       <r>   -6.7725    1.0000 </r>
       <r>   -6.7671    1.0000 </r>
       <r>   -6.7671    1.0000 </r>
       <r>   -6.7669    1.0000 </r>
       <r>   -6.7664    1.0000 </r>
       <r>   -6.7548    1.0000 </r>
       <r>   -6.7546    1.0000 </r>
       <r>   -6.7401    1.0000 </r>
       <r>   -6.7398    1.0000 </r>
       <r>   -6.6844    1.0000 </r>
       <r>   -0.3460    1.0000 </r>
       <r>    0.0939    1.0000 </r>
       <r>    0.0941    1.0000 </r>
       <r>    0.0941    1.0000 </r>
       <r>    0.0942    1.0000 </r>
       <r>    0.0943    1.0000 </r>
       <r>    0.0943    1.0000 </r>
       <r>    0.0944    1.0000 </r>
       <r>    0.0948    1.0000 </r>
       <r>    0.1076    1.0000 </r>
       <r>    0.1077    1.0000 </r>
       <r>    0.1079    1.0000 </r>
       <r>    0.1079    1.0000 </r>
       <r>    0.1521    1.0000 </r>
       <r>    0.1522    1.0000 </r>
       <r>    0.1523    1.0000 </r>
       <r>    0.1524    1.0000 </r>
       <r>    0.1579    1.0000 </r>
       <r>    0.1582    1.0000 </r>
       <r>    0.1595    1.0000 </r>
       <r>    0.1598    1.0000 </r>
       <r>    0.2006    1.0000 </r>
       <r>    0.2008    1.0000 </r>
       <r>    0.2009    1.0000 </r>
       <r>    0.2012    1.0000 </r>
       <r>    0.2366    1.0000 </r>
       <r>    0.2367    1.0000 </r>
       <r>    0.2568    1.0000 </r>
       <r>    0.2570    1.0000 </r>
       <r>    0.2821    1.0000 </r>
       <r>    0.3006    1.0000 </r>
       <r>    0.3008    1.0000 </r>
       <r>    0.3229    1.0000 </r>
       <r>    0.4471    1.0000 </r>
       <r>    0.4473    1.0000 </r>
       <r>    0.4508    1.0000 </r>
       <r>    0.4511    1.0000 </r>
       <r>    0.4573    1.0000 </r>
       <r>    0.4575    1.0000 </r>
       <r>    0.4654    1.0000 </r>
       <r>    0.4656    1.0000 </r>
       <r>    0.4657    1.0000 </r>
       <r>    0.4658    1.0000 </r>
       <r>    0.4700    1.0000 </r>
       <r>    0.4700    1.0000 </r>
       <r>    0.4701    1.0000 </r>
       <r>    0.4704    1.0000 </r>
       <r>    0.5111    1.0000 </r>
       <r>    0.5113    1.0000 </r>
       <r>    0.5262    1.0000 </r>
       <r>    0.5263    1.0000 </r>
       <r>    0.5263    1.0000 </r>
       <r>    0.5269    1.0000 </r>
       <r>    0.5971    1.0000 </r>
       <r>    0.6017    1.0000 </r>
       <r>    0.6548    1.0000 </r>
       <r>    0.6550    1.0000 </r>
       <r>    0.6552    1.0000 </r>
       <r>    0.6554    1.0000 </r>
       <r>    0.6615    1.0000 </r>
       <r>    0.6618    1.0000 </r>
       <r>    0.6877    1.0000 </r>
       <r>    0.6879    1.0000 </r>
       <r>    0.7016    1.0000 </r>
       <r>    0.7019    1.0000 </r>
       <r>    0.7020    1.0000 </r>
       <r>    0.7022    1.0000 </r>
       <r>    0.7206    1.0000 </r>
       <r>    0.7207    1.0000 </r>
       <r>    0.7408    1.0000 </r>
       <r>    0.7412    1.0000 </r>
       <r>    0.7485    1.0000 </r>
       <r>    0.8021    1.0000 </r>
       <r>    0.8142    1.0000 </r>
       <r>    0.8144    1.0000 </r>
       <r>    0.8145    1.0000 </r>
       <r>    0.8146    1.0000 </r>
       <r>    0.8299    1.0000 </r>
       <r>    0.8303    1.0000 </r>
       <r>    0.8305    1.0000 </r>
       <r>    0.8307    1.0000 </r>
       <r>    0.8518    1.0000 </r>
       <r>    0.8519    1.0000 </r>
       <r>    0.8520    1.0000 </r>
       <r>    0.8520    1.0000 </r>
       <r>    0.8520    1.0000 </r>
       <r>    0.8521    1.0000 </r>
       <r>    0.8522    1.0000 </r>
       <r>    0.8526    1.0000 </r>
       <r>    0.8950    1.0000 </r>
       <r>    0.8976    1.0000 </r>
       <r>    0.8977    1.0000 </r>
       <r>    0.8992    1.0000 </r>
       <r>    0.8994    1.0000 </r>
       <r>    0.8994    1.0000 </r>
       <r>    0.8997    1.0000 </r>
       <r>    0.9203    1.0000 </r>
       <r>    0.9458    1.0000 </r>
       <r>    0.9461    1.0000 </r>
       <r>    1.0707    1.0000 </r>
       <r>    1.0708    1.0000 </r>
       <r>    1.0709    1.0000 </r>
       <r>    1.0712    1.0000 </r>
       <r>    1.0845    1.0000 </r>
       <r>    1.0846    1.0000 </r>
       <r>    1.0847    1.0000 </r>
       <r>    1.0848    1.0000 </r>
       <r>    1.0849    1.0000 </r>
       <r>    1.0851    1.0000 </r>
       <r>    1.1008    1.0000 </r>
       <r>    1.1010    1.0000 </r>
       <r>    1.1457    1.0000 </r>
       <r>    1.1458    1.0000 </r>
       <r>    1.1459    1.0000 </r>
       <r>    1.1463    1.0000 </r>
       <r>    1.1616    1.0000 </r>
       <r>    1.1618    1.0000 </r>
       <r>    1.1619    1.0000 </r>
       <r>    1.1620    1.0000 </r>
       <r>    1.1756    1.0000 </r>
       <r>    1.1758    1.0000 </r>
       <r>    1.1997    1.0000 </r>
       <r>    1.2241    1.0000 </r>
       <r>    1.2243    1.0000 </r>
       <r>    1.2297    1.0000 </r>
       <r>    1.2298    1.0000 </r>
       <r>    1.2298    1.0000 </r>
       <r>    1.2298    1.0000 </r>
       <r>    1.2299    1.0000 </r>
       <r>    1.2300    1.0000 </r>
       <r>    1.2300    1.0000 </r>
       <r>    1.2306    1.0000 </r>
       <r>    1.2370    1.0000 </r>
       <r>    1.2372    1.0000 </r>
       <r>    1.3414    1.0000 </r>
       <r>    1.3415    1.0000 </r>
       <r>    1.3416    1.0000 </r>
       <r>    1.3417    1.0000 </r>
       <r>    1.3654    1.0000 </r>
       <r>    1.3663    1.0000 </r>
       <r>    1.3665    1.0000 </r>
       <r>    1.3672    1.0000 </r>
       <r>    1.3673    1.0000 </r>
       <r>    1.3732    1.0000 </r>
       <r>    1.3735    1.0000 </r>
       <r>    1.3736    1.0000 </r>
       <r>    1.3737    1.0000 </r>
[...]
       <r>    -1.7772     0.0000    96.0000 </r>
       <r>    -1.7055     0.0000    96.0000 </r>
       <r>    -1.6339     0.0000    96.0000 </r>
       <r>    -1.5622     0.0000    96.0000 </r>
       <r>    -1.4906     0.0000    96.0000 </r>
       <r>    -1.4189     0.0000    96.0000 </r>
       <r>    -1.3473     0.0000    96.0000 </r>
       <r>    -1.2756     0.0000    96.0000 </r>
       <r>    -1.2040     0.0000    96.0000 </r>
       <r>    -1.1323     0.0000    96.0000 </r>
       <r>    -1.0607     0.0000    96.0000 </r>
       <r>    -0.9890     0.0000    96.0000 </r>
       <r>    -0.9173     0.0000    96.0000 </r>
       <r>    -0.8457     0.0000    96.0000 </r>
       <r>    -0.7740     0.0000    96.0000 </r>
       <r>    -0.7024     0.0000    96.0000 </r>
       <r>    -0.6307     0.0000    96.0000 </r>
       <r>    -0.5591     0.0000    96.0000 </r>
       <r>    -0.4874     0.0001    96.0000 </r>
       <r>    -0.4158     0.0844    96.0061 </r>
       <r>    -0.3441     1.7342    96.1303 </r>
       <r>    -0.2725     1.8855    96.2654 </r>
       <r>    -0.2008     8.1504    96.8494 </r>
       <r>    -0.1292    15.3966    97.9526 </r>
       <r>    -0.0575    23.9773    99.6707 </r>
       <r>     0.0142    50.9141   103.3189 </r>
       <r>     0.0858   101.5572   110.5958 </r>
       <r>     0.1575   188.3558   124.0922 </r>
       <r>     0.2291   205.0318   138.7834 </r>
       <r>     0.3008   274.3540   158.4419 </r>
       <r>     0.3724   194.2832   172.3630 </r>
       <r>     0.4441   125.1917   181.3334 </r>
       <r>     0.5157   140.7442   191.4182 </r>
       <r>     0.5874   124.2507   200.3212 </r>
       <r>     0.6590   165.2896   212.1648 </r>
       <r>     0.7307   245.0200   229.7214 </r>
       <r>     0.8023   229.2432   246.1474 </r>
       <r>     0.8740   290.8080   266.9849 </r>
       <r>     0.9456   286.0050   287.4781 </r>
       <r>     1.0173   147.3356   298.0353 </r>
       <r>     1.0890   183.2805   311.1680 </r>
       <r>     1.1606   226.5660   327.4022 </r>
       <r>     1.2323   229.0366   343.8135 </r>
       <r>     1.3039   297.7913   365.1513 </r>
       <r>     1.3756   305.9700   387.0751 </r>
       <r>     1.4472   391.1671   415.1037 </r>
       <r>     1.5189   355.6810   440.5895 </r>
       <r>     1.5905   372.9916   467.3156 </r>
       <r>     1.6622   365.6530   493.5160 </r>
       <r>     1.7338   391.3776   521.5596 </r>
       <r>     1.8055   372.5781   548.2561 </r>
       <r>     1.8771   357.8927   573.9004 </r>
       <r>     1.9488   388.5875   601.7441 </r>
       <r>     2.0205   414.5889   631.4508 </r>
       <r>     2.0921   378.6688   658.5838 </r>
       <r>     2.1638   361.0226   684.4523 </r>
       <r>     2.2354   374.8606   711.3124 </r>
       <r>     2.3071   397.4265   739.7895 </r>
       <r>     2.3787   338.5955   764.0510 </r>
       <r>     2.4504   296.4012   785.2892 </r>
       <r>     2.5220   338.9504   809.5762 </r>
       <r>     2.5937   354.6312   834.9868 </r>
       <r>     2.6653   408.6032   864.2647 </r>
       <r>     2.7370   374.6814   891.1119 </r>
       <r>     2.8086   379.1150   918.2769 </r>
       <r>     2.8803   431.5019   949.1955 </r>
       <r>     2.9519   498.5282   984.9168 </r>
       <r>     3.0236   497.3295  1020.5523 </r>
       <r>     3.0953   370.3684  1047.0905 </r>
       <r>     3.1669   234.2883  1063.8781 </r>
       <r>     3.2386   205.3945  1078.5953 </r>
       <r>     3.3102   170.8866  1090.8399 </r>
       <r>     3.3819   138.5312  1100.7662 </r>
       <r>     3.4535   119.2633  1109.3118 </r>
       <r>     3.5252   157.2081  1120.5763 </r>
       <r>     3.5968   163.4682  1132.2894 </r>
       <r>     3.6685   101.2443  1139.5439 </r>
       <r>     3.7401    96.7696  1146.4778 </r>
       <r>     3.8118    65.2839  1151.1556 </r>
       <r>     3.8834    72.1402  1156.3247 </r>
       <r>     3.9551    73.4883  1161.5904 </r>
       <r>     4.0268    65.1547  1166.2590 </r>
       <r>     4.0984    92.3617  1172.8770 </r>
       <r>     4.1701   103.1881  1180.2708 </r>
       <r>     4.2417   114.5714  1188.4803 </r>
       <r>     4.3134    75.1777  1193.8670 </r>
       <r>     4.3850    72.8959  1199.0903 </r>
       <r>     4.4567    65.3237  1203.7710 </r>
       <r>     4.5283    92.0348  1210.3656 </r>
       <r>     4.6000    93.3604  1217.0552 </r>
       <r>     4.6716   102.4039  1224.3928 </r>
       <r>     4.7433   139.4165  1234.3825 </r>
       <r>     4.8149   138.1431  1244.2809 </r>
       <r>     4.8866    72.8691  1249.5023 </r>
       <r>     4.9582    53.5148  1253.3368 </r>
       <r>     5.0299    55.0348  1257.2802 </r>
       <r>     5.1016    86.8616  1263.5042 </r>
       <r>     5.1732   144.0499  1273.8258 </r>
       <r>     5.2449   109.1696  1281.6482 </r>
       <r>     5.3165    63.1864  1286.1758 </r>
       <r>     5.3882    59.3627  1290.4293 </r>
       <r>     5.4598    69.2760  1295.3932 </r>
       <r>     5.5315    72.4348  1300.5834 </r>
       <r>     5.6031    76.5581  1306.0690 </r>
       <r>     5.6748   110.2361  1313.9679 </r>
       <r>     5.7464   132.2560  1323.4445 </r>
       <r>     5.8181    72.8961  1328.6677 </r>
       <r>     5.8897    64.4542  1333.2861 </r>
       <r>     5.9614    58.5579  1337.4820 </r>
       <r>     6.0331    30.5297  1339.6695 </r>
       <r>     6.1047    18.9533  1341.0276 </r>
       <r>     6.1764    21.5443  1342.5713 </r>
       <r>     6.2480    16.8966  1343.7820 </r>
       <r>     6.3197     9.0437  1344.4300 </r>
       <r>     6.3913     0.9711  1344.4996 </r>
       <r>     6.4630     0.1172  1344.5080 </r>
       <r>     6.5346     1.8775  1344.6426 </r>
       <r>     6.6063     1.7893  1344.7708 </r>
       <r>     6.6779     5.3072  1345.1511 </r>
       <r>     6.7496    22.8491  1346.7883 </r>
       <r>     6.8212    26.0571  1348.6554 </r>
       <r>     6.8929    11.2522  1349.4616 </r>
       <r>     6.9645     6.3156  1349.9142 </r>
       <r>     7.0362     8.9712  1350.5570 </r>
       <r>     7.1079     4.6760  1350.8920 </r>
       <r>     7.1795    21.4178  1352.4267 </r>
       <r>     7.2512    23.9307  1354.1414 </r>
       <r>     7.3228    28.0940  1356.1544 </r>
       <r>     7.3945    31.3007  1358.3973 </r>
       <r>     7.4661    30.3602  1360.5727 </r>
       <r>     7.5378    60.3797  1364.8991 </r>
       <r>     7.6094    71.7759  1370.0421 </r>
       <r>     7.6811    26.7866  1371.9614 </r>
       <r>     7.7527    54.4902  1375.8659 </r>
       <r>     7.8244    69.5826  1380.8517 </r>
       <r>     7.8960    73.2723  1386.1019 </r>
       <r>     7.9677    75.3916  1391.5040 </r>
       <r>     8.0394    66.2930  1396.2541 </r>
       <r>     8.1110    34.5038  1398.7264 </r>
       <r>     8.1827    18.7472  1400.0697 </r>
       <r>     8.2543     8.4011  1400.6717 </r>
       <r>     8.3260    10.2532  1401.4064 </r>
       <r>     8.3976    50.6961  1405.0390 </r>
       <r>     8.4693    34.3299  1407.4988 </r>
       <r>     8.5409    31.9178  1409.7858 </r>
       <r>     8.6126    94.6120  1416.5651 </r>
       <r>     8.6842   104.8708  1424.0795 </r>
       <r>     8.7559    58.6966  1428.2853 </r>
       <r>     8.8275    51.5047  1431.9758 </r>
       <r>     8.8992    33.3829  1434.3678 </r>
       <r>     8.9708    45.8352  1437.6521 </r>
       <r>     9.0425    30.3906  1439.8297 </r>
       <r>     9.1142    22.2523  1441.4241 </r>
       <r>     9.1858    10.3408  1442.1651 </r>
       <r>     9.2575    16.5734  1443.3526 </r>
       <r>     9.3291    53.4069  1447.1794 </r>
       <r>     9.4008    49.7228  1450.7422 </r>
       <r>     9.4724    54.3107  1454.6338 </r>
       <r>     9.5441    38.2356  1457.3735 </r>
       <r>     9.6157    50.7430  1461.0094 </r>
       <r>     9.6874    50.0543  1464.5960 </r>
       <r>     9.7590    47.8325  1468.0233 </r>
       <r>     9.8307    52.3134  1471.7718 </r>
       <r>     9.9023    76.3693  1477.2439 </r>
       <r>     9.9740    55.7481  1481.2385 </r>
       <r>    10.0456   108.0454  1488.9803 </r>
       <r>    10.1173   119.1311  1497.5165 </r>
       <r>    10.1890    43.2725  1500.6171 </r>
       <r>    10.2606    28.4482  1502.6555 </r>
       <r>    10.3323    48.8383  1506.1549 </r>
       <r>    10.4039    56.0356  1510.1701 </r>
       <r>    10.4756    90.2901  1516.6397 </r>
       <r>    10.5472   109.6942  1524.4997 </r>
       <r>    10.6189   112.0316  1532.5271 </r>
       <r>    10.6905    94.4069  1539.2917 </r>
       <r>    10.7622    78.1953  1544.8947 </r>
       <r>    10.8338   107.2568  1552.5800 </r>
       <r>    10.9055    90.1270  1559.0379 </r>
       <r>    10.9771    65.0910  1563.7019 </r>
       <r>    11.0488    35.0479  1566.2132 </r>
       <r>    11.1205    55.1911  1570.1679 </r>
       <r>    11.1921    51.9782  1573.8923 </r>
       <r>    11.2638    44.6909  1577.0946 </r>
       <r>    11.3354    83.0672  1583.0466 </r>
       <r>    11.4071    53.5706  1586.8852 </r>
       <r>    11.4787    54.7675  1590.8094 </r>
       <r>    11.5504    88.7552  1597.1691 </r>
       <r>    11.6220    68.2824  1602.0617 </r>
       <r>    11.6937    46.3798  1605.3850 </r>
       <r>    11.7653    12.2343  1606.2616 </r>
       <r>    11.8370    14.6108  1607.3086 </r>
       <r>    11.9086    36.2478  1609.9058 </r>
       <r>    11.9803    21.1010  1611.4178 </r>
       <r>    12.0519     3.0347  1611.6352 </r>
       <r>    12.1236     4.5285  1611.9597 </r>
       <r>    12.1953     0.5598  1611.9998 </r>
       <r>    12.2669     0.0022  1612.0000 </r>
       <r>    12.3386     0.0000  1612.0000 </r>
       <r>    12.4102     0.0000  1612.0000 </r>
       <r>    12.4819     0.0000  1612.0000 </r>
       <r>    12.5535     0.0000  1612.0000 </r>
       <r>    12.6252     0.0000  1612.0000 </r>
       <r>    12.6968     0.0000  1612.0000 </r>
       <r>    12.7685     0.0000  1612.0000 </r>
       <r>    12.8401     0.0000  1612.0000 </r>
       <r>    12.9118     0.0000  1612.0000 </r>
       <r>    12.9834     0.0000  1612.0000 </r>
       <r>    13.0551     0.0000  1612.0000 </r>
      </set>
     </set>
    </array>
   </total>
  </dos>
 </calculation>
 <structure name="finalpos" >
  <crystal>
   <varray name="basis" >
    <v>      14.01039598       0.00139138       0.00000000 </v>
    <v>      -0.00150196      13.76691092       0.00000000 </v>
    <v>       0.00000000       0.00000000      14.55019386 </v>
   </varray>
   <i name="volume">   2806.43958022 </i>
   <varray name="rec_basis" >
    <v>       0.07137557       0.00000779       0.00000000 </v>
    <v>      -0.00000721       0.07263794       0.00000000 </v>
    <v>       0.00000000       0.00000000       0.06872761 </v>
   </varray>
  </crystal>
  <varray name="positions" >
   <v>       0.42987898       0.17239715       0.33247735 </v>
   <v>       0.92987898       0.17167077       0.33247735 </v>
   <v>       0.42987898       0.67167077       0.33247735 </v>
   <v>       0.92987898       0.67167077       0.33247735 </v>
   <v>       0.42987898       0.17167077       0.66581068 </v>
   <v>       0.92987898       0.17167077       0.66581068 </v>
   <v>       0.42987898       0.67167077       0.66581068 </v>
   <v>       0.92987898       0.67167077       0.66581068 </v>
   <v>       0.42987898       0.17167077       0.99914401 </v>
   <v>       0.92987898       0.17167077       0.99914401 </v>
   <v>       0.42987898       0.67167077       0.99914401 </v>
   <v>       0.92987898       0.67167077       0.99914401 </v>
   <v>       0.07012102       0.32832923       0.33247735 </v>
   <v>       0.57012102       0.32832923       0.33247735 </v>
   <v>       0.07012102       0.82832923       0.33247735 </v>
   <v>       0.57012102       0.82832923       0.33247735 </v>
   <v>       0.07012102       0.32832923       0.66581068 </v>
   <v>       0.57012102       0.32832923       0.66581068 </v>
   <v>       0.07012102       0.82832923       0.66581068 </v>
   <v>       0.57012102       0.82832923       0.66581068 </v>
   <v>       0.07012102       0.32832923       0.99914401 </v>
   <v>       0.57012102       0.32832923       0.99914401 </v>
   <v>       0.07012102       0.82832923       0.99914401 </v>
   <v>       0.57012102       0.82832923       0.99914401 </v>
   <v>       0.32012053       0.42167367       0.05641075 </v>
   <v>       0.82012053       0.42167367       0.05641075 </v>
   <v>       0.32012053       0.92167367       0.05641075 </v>
   <v>       0.82012053       0.92167367       0.05641075 </v>
   <v>       0.32012053       0.42167367       0.38974408 </v>
   <v>       0.82012053       0.42167367       0.38974408 </v>
   <v>       0.32012053       0.92167367       0.38974408 </v>
   <v>       0.82012053       0.92167367       0.38974408 </v>
   <v>       0.32012053       0.42167367       0.72307741 </v>
   <v>       0.82012053       0.42167367       0.72307741 </v>
   <v>       0.32012053       0.92167367       0.72307741 </v>
   <v>       0.82012053       0.92167367       0.72307741 </v>
   <v>       0.17987947       0.07832633       0.05641075 </v>
   <v>       0.67987947       0.07832633       0.05641075 </v>
   <v>       0.17987947       0.57832633       0.05641075 </v>
   <v>       0.67987947       0.57832633       0.05641075 </v>
   <v>       0.17987947       0.07832633       0.38974408 </v>
   <v>       0.67987947       0.07832633       0.38974408 </v>
   <v>       0.17987947       0.57832633       0.38974408 </v>
   <v>       0.67987947       0.57832633       0.38974408 </v>
   <v>       0.17987947       0.07832633       0.72307741 </v>
   <v>       0.67987947       0.07832633       0.72307741 </v>
   <v>       0.17987947       0.57832633       0.72307741 </v>
   <v>       0.67987947       0.57832633       0.72307741 </v>
   <v>       0.17987776       0.32832369       0.16580856 </v>
   <v>       0.67987776       0.32832369       0.16580856 </v>
   <v>       0.17987776       0.82832369       0.16580856 </v>
   <v>       0.67987776       0.82832369       0.16580856 </v>
   <v>       0.17987776       0.32832369       0.49914189 </v>
   <v>       0.67987776       0.32832369       0.49914189 </v>
   <v>       0.17987776       0.82832369       0.49914189 </v>
   <v>       0.67987776       0.82832369       0.49914189 </v>
   <v>       0.17987776       0.32832369       0.83247522 </v>
   <v>       0.67987776       0.32832369       0.83247522 </v>
   <v>       0.17987776       0.82832369       0.83247522 </v>
   <v>       0.67987776       0.82832369       0.83247522 </v>
   <v>       0.32012224       0.17167631       0.16580856 </v>
   <v>       0.82012224       0.17167631       0.16580856 </v>
   <v>       0.32012224       0.67167631       0.16580856 </v>
   <v>       0.82012224       0.67167631       0.16580856 </v>
   <v>       0.32012224       0.17167631       0.49914189 </v>
   <v>       0.82012224       0.17167631       0.49914189 </v>
   <v>       0.32012224       0.67167631       0.49914189 </v>
   <v>       0.82012224       0.67167631       0.49914189 </v>
   <v>       0.32012224       0.17167631       0.83247522 </v>
   <v>       0.82012224       0.17167631       0.83247522 </v>
   <v>       0.32012224       0.67167631       0.83247522 </v>
   <v>       0.82012224       0.67167631       0.83247522 </v>
   <v>       0.42987656       0.42167494       0.22308000 </v>
   <v>       0.92987656       0.42167494       0.22308000 </v>
   <v>       0.42987656       0.92167494       0.22308000 </v>
   <v>       0.92987656       0.92167494       0.22308000 </v>
   <v>       0.42987656       0.42167494       0.55641333 </v>
   <v>       0.92987656       0.42167494       0.55641333 </v>
   <v>       0.42987656       0.92167494       0.55641333 </v>
   <v>       0.92987656       0.92167494       0.55641333 </v>
   <v>       0.42987656       0.42167494       0.88974666 </v>
   <v>       0.92987656       0.42167494       0.88974666 </v>
   <v>       0.42987656       0.92167494       0.88974666 </v>
   <v>       0.92987656       0.92167494       0.88974666 </v>
   <v>       0.07012344       0.07832506       0.22308000 </v>
   <v>       0.57012344       0.07832506       0.22308000 </v>
   <v>       0.07012344       0.57832506       0.22308000 </v>
   <v>       0.57012344       0.57832506       0.22308000 </v>
   <v>       0.07012344       0.07832506       0.55641333 </v>
   <v>       0.57012344       0.07832506       0.55641333 </v>
   <v>       0.07012344       0.57832506       0.55641333 </v>
   <v>       0.57012344       0.57832506       0.55641333 </v>
   <v>       0.07012344       0.07832506       0.88974666 </v>
   <v>       0.57012344       0.07832506       0.88974666 </v>
   <v>       0.07012344       0.57832506       0.88974666 </v>
   <v>       0.57012344       0.57832506       0.88974666 </v>
   <v>       0.00000000       0.00000000       0.05479365 </v>
   <v>       0.50000000       0.00000000       0.05479365 </v>
   <v>       0.00000000       0.50000000       0.05479365 </v>
   <v>       0.50000000       0.50000000       0.05479365 </v>
   <v>       0.00000000       0.00000000       0.38812698 </v>
   <v>       0.50000000       0.00000000       0.38812698 </v>
   <v>       0.00000000       0.50000000       0.38812698 </v>
   <v>       0.50000000       0.50000000       0.38812698 </v>
   <v>       0.00000000       0.00000000       0.72146032 </v>
   <v>       0.50000000       0.00000000       0.72146032 </v>
   <v>       0.00000000       0.50000000       0.72146032 </v>
   <v>       0.50000000       0.50000000       0.72146032 </v>
   <v>       0.25000000       0.00000000       0.22145206 </v>
   <v>       0.75000000       0.00000000       0.22145206 </v>
   <v>       0.25000000       0.50000000       0.22145206 </v>
   <v>       0.75000000       0.50000000       0.22145206 </v>
   <v>       0.25000000       0.00000000       0.55478539 </v>
   <v>       0.75000000       0.00000000       0.55478539 </v>
   <v>       0.25000000       0.50000000       0.55478539 </v>
   <v>       0.75000000       0.50000000       0.55478539 </v>
   <v>       0.25000000       0.00000000       0.88811873 </v>
   <v>       0.75000000       0.00000000       0.88811873 </v>
   <v>       0.25000000       0.50000000       0.88811873 </v>
   <v>       0.75000000       0.50000000       0.88811873 </v>
   <v>       0.00000000       0.25000000       0.16743769 </v>
   <v>       0.50000000       0.25000000       0.16743769 </v>
   <v>       0.00000000       0.75000000       0.16743769 </v>
   <v>       0.50000000       0.75000000       0.16743769 </v>
   <v>       0.00000000       0.25000000       0.50077102 </v>
   <v>       0.50000000       0.25000000       0.50077102 </v>
   <v>       0.00000000       0.75000000       0.50077102 </v>
   <v>       0.50000000       0.75000000       0.50077102 </v>
   <v>       0.00000000       0.25000000       0.83410435 </v>
   <v>       0.50000000       0.25000000       0.83410435 </v>
   <v>       0.00000000       0.75000000       0.83410435 </v>
   <v>       0.50000000       0.75000000       0.83410435 </v>
   <v>       0.25000000       0.25000000       0.00076332 </v>
   <v>       0.75000000       0.25000000       0.00076332 </v>
   <v>       0.25000000       0.75000000       0.00076332 </v>
   <v>       0.75000000       0.75000000       0.00076332 </v>
   <v>       0.25000000       0.25000000       0.33409665 </v>
   <v>       0.75000000       0.25000000       0.33409665 </v>
   <v>       0.25000000       0.75000000       0.33409665 </v>
   <v>       0.75000000       0.75000000       0.33409665 </v>
   <v>       0.25000000       0.25000000       0.66742999 </v>
   <v>       0.75000000       0.25000000       0.66742999 </v>
   <v>       0.25000000       0.75000000       0.66742999 </v>
   <v>       0.75000000       0.75000000       0.66742999 </v>
  </varray>
 </structure>
</modeling>
