<?xml version="1.0" encoding="ISO-8859-1"?>
<modeling>
 <generator>
  <i name="program" type="string">vasp </i>
  <i name="version" type="string">5.4.4.18Apr17-6-g9f103f2a35  </i>
  <i name="subversion" type="string">(build Jul 30 2020 14:31:59) complex            parallel </i>
  <i name="platform" type="string">LinuxIFC </i>
  <i name="date" type="string">2021 02 04 </i>
  <i name="time" type="string">08:21:28 </i>
 </generator>
 <incar>
  <i type="string" name="PREC">accurate</i>
  <i type="string" name="ALGO"> normal</i>
  <i type="logical" name="ADDGRID"> T  </i>
  <i type="int" name="ISPIN">     1</i>
  <i type="int" name="NELM">   200</i>
  <i type="int" name="NELMIN">     8</i>
  <i name="EDIFF">      0.00000001</i>
  <i type="int" name="ISIF">     3</i>
  <i type="int" name="ISYM">     0</i>
  <i name="ENCUT">    650.00000000</i>
  <i type="logical" name="LREAL"> F  </i>
  <i type="int" name="ISMEAR">     0</i>
  <i name="SIGMA">      0.05000000</i>
  <i type="logical" name="LWAVE"> F  </i>
  <i type="logical" name="LASPH"> T  </i>
  <v type="int" name="KPOINT_BSE">    -1     0     0     0</v>
  <i type="int" name="NELM">   200</i>
  <i type="string" name="GGA"> ps</i>
  <i type="logical" name="LASPH"> T  </i>
 </incar>
 <structure name="primitive_cell" >
  <crystal>
   <varray name="basis" >
    <v>      14.01039598       0.00139138       0.00000000 </v>
    <v>      -0.00150196      13.76691092       0.00000000 </v>
    <v>       0.00000000       0.00000000      14.55019386 </v>
   </varray>
   <i name="volume">   2806.43958022 </i>
   <varray name="rec_basis" >
    <v>       0.07137557       0.00000779       0.00000000 </v>
    <v>      -0.00000721       0.07263794       0.00000000 </v>
    <v>       0.00000000       0.00000000       0.06872761 </v>
   </varray>
  </crystal>
  <varray name="positions" >
   <v>       0.42987898       0.17167077       0.33247735 </v>
   <v>      -0.50000000       0.00000000       0.38812698 </v>
   <v>       0.25000000       0.25000000       0.33409665 </v>
   <v>      -0.50000000       0.25000000       0.16743769 </v>
   <v>      -0.42987656       0.07832506       0.22308000 </v>
   <v>      -0.50000000       0.25000000      -0.49922898 </v>
   <v>       0.32012224       0.17167631       0.49914189 </v>
   <v>       0.32012224       0.17167631       0.16580856 </v>
   <v>      -0.42987898       0.32832923       0.33247735 </v>
   <v>       0.42987656      -0.07832506       0.22308000 </v>
   <v>       0.42987656       0.42167494       0.22308000 </v>
   <v>       0.25000000       0.00000000       0.22145206 </v>
   <v>       0.17987948       0.07832633       0.38974408 </v>
   <v>      -0.32012052       0.07832633       0.38974408 </v>
   <v>       0.32012052      -0.07832633       0.38974408 </v>
   <v>       0.32012052       0.42167367       0.38974408 </v>
   <v>      -0.42987656       0.07832506      -0.44358667 </v>
   <v>      -0.25000000       0.25000000       0.33409665 </v>
   <v>      -0.50000000      -0.50000000       0.38812698 </v>
   <v>       0.25000000       0.00000000      -0.44521461 </v>
   <v>       0.42987656      -0.07832506      -0.44358667 </v>
   <v>       0.42987656       0.42167494      -0.44358667 </v>
   <v>       0.17987776       0.32832369       0.16649583 </v>
   <v>      -0.32012224       0.32832369       0.49914189 </v>
   <v>      -0.32012224       0.32832369       0.16580856 </v>
   <v>       0.17987776       0.32832369       0.49914189 </v>
   <v>      -0.50000000       0.00000000       0.05479365 </v>
   <v>       0.42987898       0.17167077      -0.33418932 </v>
   <v>       0.42987898       0.17167077      -0.00085599 </v>
   <v>      -0.42987898      -0.17167077       0.33247735 </v>
   <v>      -0.25000000       0.00000000       0.22145206 </v>
   <v>       0.25000000      -0.50000000       0.22145206 </v>
   <v>       0.07012344       0.07832506       0.22308000 </v>
   <v>       0.17987948       0.07832633       0.05641075 </v>
   <v>      -0.32012052       0.07832633       0.05641075 </v>
   <v>       0.07012102       0.32832923       0.33247735 </v>
   <v>       0.32012052      -0.07832633       0.05641075 </v>
   <v>       0.32012052       0.42167367       0.05641075 </v>
   <v>       0.25000000       0.25000000       0.00076332 </v>
   <v>       0.25000000       0.25000000      -0.33257001 </v>
   <v>      -0.42987898       0.32832923      -0.33418932 </v>
   <v>      -0.42987898       0.32832923      -0.00085599 </v>
   <v>      -0.17987776       0.17167631       0.49914189 </v>
   <v>      -0.17987776       0.17167631       0.16580856 </v>
   <v>      -0.25000000       0.00000000      -0.44521461 </v>
   <v>       0.25000000      -0.50000000      -0.44521461 </v>
   <v>       0.07012344       0.07832506      -0.44358667 </v>
   <v>      -0.50000000      -0.50000000       0.05479365 </v>
   <v>      -0.42987656      -0.42167494       0.22308000 </v>
   <v>      -0.50000000       0.00000000      -0.27853968 </v>
   <v>       0.25000000      -0.25000000       0.33409665 </v>
   <v>      -0.50000000      -0.25000000       0.16743769 </v>
   <v>       0.17987776      -0.17167631       0.49914189 </v>
   <v>       0.17987776      -0.17167631       0.16580856 </v>
   <v>      -0.32012224      -0.17167631       0.49914189 </v>
   <v>      -0.32012224      -0.17167631       0.16580856 </v>
   <v>      -0.50000000      -0.25000000      -0.49922898 </v>
   <v>      -0.17987948       0.42167367       0.38974408 </v>
   <v>      -0.17987948      -0.07832633       0.38974408 </v>
   <v>       0.00000000       0.00000000       0.38812698 </v>
   <v>      -0.25000000      -0.50000000       0.22145206 </v>
   <v>       0.00000000       0.25000000       0.16743769 </v>
   <v>       0.00000000       0.25000000      -0.49922898 </v>
   <v>      -0.32012052      -0.42167367       0.38974408 </v>
   <v>       0.17987948      -0.42167367       0.38974408 </v>
   <v>      -0.25000000       0.25000000       0.00076332 </v>
   <v>      -0.25000000       0.25000000      -0.33257001 </v>
   <v>      -0.42987656      -0.42167494      -0.44358667 </v>
   <v>       0.17987948       0.07832633      -0.27692259 </v>
   <v>      -0.32012052       0.07832633      -0.27692259 </v>
   <v>       0.32012052      -0.07832633      -0.27692259 </v>
   <v>       0.32012052       0.42167367      -0.27692259 </v>
   <v>      -0.42987656       0.07832506      -0.11025334 </v>
   <v>       0.42987898      -0.32832923       0.33247735 </v>
   <v>       0.07012102      -0.17167077       0.33247735 </v>
   <v>      -0.07012102       0.17167077       0.33247735 </v>
   <v>      -0.42987898      -0.17167077      -0.33418932 </v>
   <v>      -0.42987898      -0.17167077      -0.00085599 </v>
   <v>      -0.25000000      -0.50000000      -0.44521461 </v>
   <v>       0.42987656      -0.07832506      -0.11025334 </v>
   <v>       0.42987656       0.42167494      -0.11025334 </v>
   <v>      -0.50000000      -0.50000000      -0.27853968 </v>
   <v>       0.07012102       0.32832923      -0.33418932 </v>
   <v>       0.07012102       0.32832923      -0.00085599 </v>
   <v>       0.25000000       0.00000000      -0.11188127 </v>
   <v>      -0.25000000      -0.25000000       0.33409665 </v>
   <v>      -0.50000000       0.25000000      -0.16589565 </v>
   <v>       0.32012224       0.17167631      -0.16752478 </v>
   <v>       0.32012224      -0.32832369       0.49914189 </v>
   <v>       0.32012224      -0.32832369       0.16580856 </v>
   <v>       0.00000000      -0.50000000       0.38812698 </v>
   <v>      -0.17987948       0.42167367       0.05641075 </v>
   <v>      -0.17987948      -0.07832633       0.05641075 </v>
   <v>       0.00000000       0.00000000       0.05479365 </v>
   <v>       0.07012344      -0.42167494       0.22308000 </v>
   <v>      -0.32012052      -0.42167367       0.05641075 </v>
   <v>       0.17987948      -0.42167367       0.05641075 </v>
   <v>       0.25000000      -0.25000000       0.00076332 </v>
   <v>      -0.07012344       0.42167494       0.22308000 </v>
   <v>      -0.07012344      -0.07832506       0.22308000 </v>
   <v>       0.25000000      -0.25000000      -0.33257001 </v>
   <v>       0.07012344      -0.42167494      -0.44358667 </v>
   <v>      -0.25000000       0.00000000      -0.11188127 </v>
   <v>       0.07012344       0.07832506      -0.11025334 </v>
   <v>       0.25000000      -0.50000000      -0.11188127 </v>
   <v>      -0.32012224       0.32832369      -0.16752478 </v>
   <v>       0.17987776       0.32832369      -0.16752478 </v>
   <v>       0.42987898      -0.32832923      -0.33418932 </v>
   <v>       0.42987898      -0.32832923      -0.00085599 </v>
   <v>       0.07012102      -0.17167077      -0.33418932 </v>
   <v>       0.07012102      -0.17167077      -0.00085599 </v>
   <v>      -0.07012344       0.42167494      -0.44358667 </v>
   <v>      -0.07012344      -0.07832506      -0.44358667 </v>
   <v>      -0.07012102       0.17167077      -0.33418932 </v>
   <v>      -0.07012102       0.17167077      -0.00085599 </v>
   <v>       0.00000000      -0.50000000       0.05479365 </v>
   <v>       0.00000000       0.00000000      -0.27853968 </v>
   <v>      -0.17987948       0.42167367      -0.27692259 </v>
   <v>      -0.17987948      -0.07832633      -0.27692259 </v>
   <v>       0.00000000      -0.25000000       0.16743769 </v>
   <v>      -0.32012052      -0.42167367      -0.27692259 </v>
   <v>       0.17987948      -0.42167367      -0.27692259 </v>
   <v>       0.00000000      -0.25000000      -0.49922898 </v>
   <v>      -0.42987656      -0.42167494      -0.11025334 </v>
   <v>      -0.25000000      -0.25000000       0.00076332 </v>
   <v>      -0.25000000      -0.25000000      -0.33257001 </v>
   <v>      -0.25000000      -0.50000000      -0.11188127 </v>
   <v>      -0.17987776       0.17167631      -0.16752478 </v>
   <v>      -0.17987776      -0.32832369       0.49914189 </v>
   <v>      -0.17987776      -0.32832369       0.16580856 </v>
   <v>      -0.50000000      -0.25000000      -0.16589565 </v>
   <v>       0.17987776      -0.17167631      -0.16752478 </v>
   <v>      -0.32012224      -0.17167631      -0.16752478 </v>
   <v>       0.00000000      -0.50000000      -0.27853968 </v>
   <v>       0.00000000       0.25000000      -0.16589565 </v>
   <v>      -0.07012102      -0.32832923       0.33247735 </v>
   <v>       0.07012344      -0.42167494      -0.11025334 </v>
   <v>      -0.07012344       0.42167494      -0.11025334 </v>
   <v>      -0.07012344      -0.07832506      -0.11025334 </v>
   <v>       0.32012224      -0.32832369      -0.16752478 </v>
   <v>      -0.07012102      -0.32832923      -0.33418932 </v>
   <v>      -0.07012102      -0.32832923      -0.00085599 </v>
   <v>       0.00000000      -0.25000000      -0.16589565 </v>
   <v>      -0.17987776      -0.32832369      -0.16752478 </v>
  </varray>
 </structure>
 <varray name="primitive_index" >
  <v type="int" >        1 </v>
  <v type="int" >      102 </v>
  <v type="int" >      137 </v>
  <v type="int" >      122 </v>
  <v type="int" >       86 </v>
  <v type="int" >      126 </v>
  <v type="int" >       65 </v>
  <v type="int" >       61 </v>
  <v type="int" >       14 </v>
  <v type="int" >       75 </v>
  <v type="int" >       73 </v>
  <v type="int" >      109 </v>
  <v type="int" >       41 </v>
  <v type="int" >       42 </v>
  <v type="int" >       31 </v>
  <v type="int" >       29 </v>
  <v type="int" >       90 </v>
  <v type="int" >      138 </v>
  <v type="int" >      104 </v>
  <v type="int" >      113 </v>
  <v type="int" >       79 </v>
  <v type="int" >       77 </v>
  <v type="int" >       49 </v>
  <v type="int" >       54 </v>
  <v type="int" >       50 </v>
  <v type="int" >       53 </v>
  <v type="int" >       98 </v>
  <v type="int" >        5 </v>
  <v type="int" >        9 </v>
  <v type="int" >       16 </v>
  <v type="int" >      110 </v>
  <v type="int" >      111 </v>
  <v type="int" >       85 </v>
  <v type="int" >       37 </v>
  <v type="int" >       38 </v>
  <v type="int" >       13 </v>
  <v type="int" >       27 </v>
  <v type="int" >       25 </v>
  <v type="int" >      133 </v>
  <v type="int" >      141 </v>
  <v type="int" >       18 </v>
  <v type="int" >       22 </v>
  <v type="int" >       66 </v>
  <v type="int" >       62 </v>
  <v type="int" >      114 </v>
  <v type="int" >      115 </v>
  <v type="int" >       89 </v>
  <v type="int" >      100 </v>
  <v type="int" >       88 </v>
  <v type="int" >      106 </v>
  <v type="int" >      139 </v>
  <v type="int" >      124 </v>
  <v type="int" >       55 </v>
  <v type="int" >       51 </v>
  <v type="int" >       56 </v>
  <v type="int" >       52 </v>
  <v type="int" >      128 </v>
  <v type="int" >       30 </v>
  <v type="int" >       32 </v>
  <v type="int" >      101 </v>
  <v type="int" >      112 </v>
  <v type="int" >      121 </v>
  <v type="int" >      125 </v>
  <v type="int" >       44 </v>
  <v type="int" >       43 </v>
  <v type="int" >      134 </v>
  <v type="int" >      142 </v>
  <v type="int" >       92 </v>
  <v type="int" >       45 </v>
  <v type="int" >       46 </v>
  <v type="int" >       35 </v>
  <v type="int" >       33 </v>
  <v type="int" >       94 </v>
  <v type="int" >        3 </v>
  <v type="int" >       15 </v>
  <v type="int" >        2 </v>
  <v type="int" >       20 </v>
  <v type="int" >       24 </v>
  <v type="int" >      116 </v>
  <v type="int" >       83 </v>
  <v type="int" >       81 </v>
  <v type="int" >      108 </v>
  <v type="int" >       17 </v>
  <v type="int" >       21 </v>
  <v type="int" >      117 </v>
  <v type="int" >      140 </v>
  <v type="int" >      130 </v>
  <v type="int" >       69 </v>
  <v type="int" >       67 </v>
  <v type="int" >       63 </v>
  <v type="int" >      103 </v>
  <v type="int" >       26 </v>
  <v type="int" >       28 </v>
  <v type="int" >       97 </v>
  <v type="int" >       87 </v>
  <v type="int" >       40 </v>
  <v type="int" >       39 </v>
  <v type="int" >      135 </v>
  <v type="int" >       74 </v>
  <v type="int" >       76 </v>
  <v type="int" >      143 </v>
  <v type="int" >       91 </v>
  <v type="int" >      118 </v>
  <v type="int" >       93 </v>
  <v type="int" >      119 </v>
  <v type="int" >       58 </v>
  <v type="int" >       57 </v>
  <v type="int" >        7 </v>
  <v type="int" >       11 </v>
  <v type="int" >       19 </v>
  <v type="int" >       23 </v>
  <v type="int" >       78 </v>
  <v type="int" >       80 </v>
  <v type="int" >        6 </v>
  <v type="int" >       10 </v>
  <v type="int" >       99 </v>
  <v type="int" >      105 </v>
  <v type="int" >       34 </v>
  <v type="int" >       36 </v>
  <v type="int" >      123 </v>
  <v type="int" >       48 </v>
  <v type="int" >       47 </v>
  <v type="int" >      127 </v>
  <v type="int" >       96 </v>
  <v type="int" >      136 </v>
  <v type="int" >      144 </v>
  <v type="int" >      120 </v>
  <v type="int" >       70 </v>
  <v type="int" >       68 </v>
  <v type="int" >       64 </v>
  <v type="int" >      132 </v>
  <v type="int" >       59 </v>
  <v type="int" >       60 </v>
  <v type="int" >      107 </v>
  <v type="int" >      129 </v>
  <v type="int" >        4 </v>
  <v type="int" >       95 </v>
  <v type="int" >       82 </v>
  <v type="int" >       84 </v>
  <v type="int" >       71 </v>
  <v type="int" >        8 </v>
  <v type="int" >       12 </v>
  <v type="int" >      131 </v>
  <v type="int" >       72 </v>
 </varray>
 <kpoints>
  <generation param="Gamma">
   <v type="int" name="divisions">       2        2        2 </v>
   <v name="usershift">      0.00000000       0.00000000       0.00000000 </v>
   <v name="genvec1">      0.50000000       0.00000000       0.00000000 </v>
   <v name="genvec2">      0.00000000       0.50000000       0.00000000 </v>
   <v name="genvec3">      0.00000000       0.00000000       0.50000000 </v>
   <v name="shift">      0.00000000       0.00000000       0.00000000 </v>
  </generation>
  <varray name="kpointlist" >
   <v>       0.00000000       0.00000000       0.00000000 </v>
   <v>       0.50000000      -0.00000000       0.00000000 </v>
   <v>       0.00000000       0.50000000       0.00000000 </v>
   <v>       0.50000000       0.50000000       0.00000000 </v>
   <v>       0.00000000       0.00000000       0.50000000 </v>
   <v>       0.50000000      -0.00000000       0.50000000 </v>
   <v>       0.00000000       0.50000000       0.50000000 </v>
   <v>       0.50000000       0.50000000       0.50000000 </v>
  </varray>
  <varray name="weights" >
   <v>       0.12500000 </v>
   <v>       0.12500000 </v>
   <v>       0.12500000 </v>
   <v>       0.12500000 </v>
   <v>       0.12500000 </v>
   <v>       0.12500000 </v>
   <v>       0.12500000 </v>
   <v>       0.12500000 </v>
  </varray>
 </kpoints>
 <parameters>
  <separator name="general" >
   <i type="string" name="SYSTEM">unknown system</i>
   <i type="logical" name="LCOMPAT"> F  </i>
  </separator>
  <separator name="electronic" >
   <i type="string" name="PREC">accura</i>
   <i name="ENMAX">    650.00000000</i>
   <i name="ENAUG">    446.84200000</i>
   <i name="EDIFF">      0.00000001</i>
   <i type="int" name="IALGO">    38</i>
   <i type="int" name="IWAVPR">    10</i>
   <i type="int" name="NBANDS">   806</i>
   <i name="NELECT">   1344.00000000</i>
   <i type="int" name="TURBO">     0</i>
   <i type="int" name="IRESTART">     0</i>
   <i type="int" name="NREBOOT">     0</i>
   <i type="int" name="NMIN">     0</i>
   <i name="EREF">      0.00000000</i>
   <separator name="electronic smearing" >
    <i type="int" name="ISMEAR">     0</i>
    <i name="SIGMA">      0.05000000</i>
    <i name="KSPACING">      0.50000000</i>
    <i type="logical" name="KGAMMA"> T  </i>
   </separator>
   <separator name="electronic projectors" >
    <i type="logical" name="LREAL"> F  </i>
    <v name="ROPT">      0.00000000      0.00000000</v>
    <i type="int" name="LMAXPAW">  -100</i>
    <i type="int" name="LMAXMIX">     2</i>
    <i type="logical" name="NLSPLINE"> F  </i>
   </separator>
   <separator name="electronic startup" >
    <i type="int" name="ISTART">     0</i>
    <i type="int" name="ICHARG">     2</i>
    <i type="int" name="INIWAV">     1</i>
   </separator>
   <separator name="electronic spin" >
    <i type="int" name="ISPIN">     1</i>
    <i type="logical" name="LNONCOLLINEAR"> F  </i>
    <v name="MAGMOM">      1.00000000      1.00000000      1.00000000      1.00000000      1.00000000      1.00000000      1.00000000      1.00000000      1.00000000      1.00000000      1.00000000      1.00000000      1.00000000      1.00000000      1.00000000      1.00000000      1.00000000      1.00000000      1.00000000      1.00000000
      1.00000000      1.00000000      1.00000000      1.00000000      1.00000000      1.00000000      1.00000000      1.00000000      1.00000000      1.00000000      1.00000000      1.00000000      1.00000000      1.00000000      1.00000000      1.00000000      1.00000000      1.00000000      1.00000000      1.00000000
      1.00000000      1.00000000      1.00000000      1.00000000      1.00000000      1.00000000      1.00000000      1.00000000      1.00000000      1.00000000      1.00000000      1.00000000      1.00000000      1.00000000      1.00000000      1.00000000      1.00000000      1.00000000      1.00000000      1.00000000
      1.00000000      1.00000000      1.00000000      1.00000000      1.00000000      1.00000000      1.00000000      1.00000000      1.00000000      1.00000000      1.00000000      1.00000000      1.00000000      1.00000000      1.00000000      1.00000000      1.00000000      1.00000000      1.00000000      1.00000000
      1.00000000      1.00000000      1.00000000      1.00000000      1.00000000      1.00000000      1.00000000      1.00000000      1.00000000      1.00000000      1.00000000      1.00000000      1.00000000      1.00000000      1.00000000      1.00000000      1.00000000      1.00000000      1.00000000      1.00000000
      1.00000000      1.00000000      1.00000000      1.00000000      1.00000000      1.00000000      1.00000000      1.00000000      1.00000000      1.00000000      1.00000000      1.00000000      1.00000000      1.00000000      1.00000000      1.00000000      1.00000000      1.00000000      1.00000000      1.00000000
      1.00000000      1.00000000      1.00000000      1.00000000      1.00000000      1.00000000      1.00000000      1.00000000      1.00000000      1.00000000      1.00000000      1.00000000      1.00000000      1.00000000      1.00000000      1.00000000      1.00000000      1.00000000      1.00000000      1.00000000
      1.00000000      1.00000000      1.00000000      1.00000000</v>
    <i name="NUPDOWN">     -1.00000000</i>
    <i type="logical" name="LSORBIT"> F  </i>
    <v name="SAXIS">      0.00000000      0.00000000      1.00000000</v>
    <i type="logical" name="LSPIRAL"> F  </i>
    <v name="QSPIRAL">      0.00000000      0.00000000      0.00000000</v>
    <i type="logical" name="LZEROZ"> F  </i>
   </separator>
   <separator name="electronic exchange-correlation" >
    <i type="logical" name="LASPH"> T  </i>
    <i type="logical" name="LMETAGGA"> F  </i>
   </separator>
   <separator name="electronic convergence" >
    <i type="int" name="NELM">   200</i>
    <i type="int" name="NELMDL">    -5</i>
    <i type="int" name="NELMIN">     8</i>
    <i name="ENINI">    650.00000000</i>
    <separator name="electronic convergence detail" >
     <i type="logical" name="LDIAG"> T  </i>
     <i type="logical" name="LSUBROT"> F  </i>
     <i name="WEIMIN">      0.00000000</i>
     <i name="EBREAK">      0.00000000</i>
     <i name="DEPER">      0.30000000</i>
     <i type="int" name="NRMM">     4</i>
     <i name="TIME">      0.40000000</i>
    </separator>
   </separator>
   <separator name="electronic mixer" >
    <i name="AMIX">      0.40000000</i>
    <i name="BMIX">      1.00000000</i>
    <i name="AMIN">      0.10000000</i>
    <i name="AMIX_MAG">      1.60000000</i>
    <i name="BMIX_MAG">      1.00000000</i>
    <separator name="electronic mixer details" >
     <i type="int" name="IMIX">     4</i>
     <i type="logical" name="MIXFIRST"> F  </i>
     <i type="int" name="MAXMIX">   -45</i>
     <i name="WC">    100.00000000</i>
     <i type="int" name="INIMIX">     1</i>
     <i type="int" name="MIXPRE">     1</i>
     <i type="int" name="MREMOVE">     5</i>
    </separator>
   </separator>
   <separator name="electronic dipolcorrection" >
    <i type="logical" name="LDIPOL"> F  </i>
    <i type="logical" name="LMONO"> F  </i>
    <i type="int" name="IDIPOL">     0</i>
    <i name="EPSILON">      1.00000000</i>
    <v name="DIPOL">   -100.00000000   -100.00000000   -100.00000000</v>
    <i name="EFIELD">      0.00000000</i>
   </separator>
  </separator>
  <separator name="grids" >
   <i type="int" name="NGX">   120</i>
   <i type="int" name="NGY">   120</i>
   <i type="int" name="NGZ">   126</i>
   <i type="int" name="NGXF">   240</i>
   <i type="int" name="NGYF">   240</i>
   <i type="int" name="NGZF">   252</i>
   <i type="logical" name="ADDGRID"> T  </i>
  </separator>
  <separator name="ionic" >
   <i type="int" name="NSW">     0</i>
   <i type="int" name="IBRION">    -1</i>
   <i type="int" name="MDALGO">     0</i>
   <i type="int" name="ISIF">     3</i>
   <i name="PSTRESS">      0.00000000</i>
   <i name="EDIFFG">      0.00000010</i>
   <i type="int" name="NFREE">     0</i>
   <i name="POTIM">      0.50000000</i>
   <i name="SMASS">     -3.00000000</i>
   <i name="SCALEE">      1.00000000</i>
  </separator>
  <separator name="ionic md" >
   <i name="TEBEG">      0.00010000</i>
   <i name="TEEND">      0.00010000</i>
   <i type="int" name="NBLOCK">     1</i>
   <i type="int" name="KBLOCK">     1</i>
   <i type="int" name="NPACO">   256</i>
   <i name="APACO">     16.00000000</i>
  </separator>
  <separator name="symmetry" >
   <i type="int" name="ISYM">     0</i>
   <i name="SYMPREC">      0.00001000</i>
  </separator>
  <separator name="dos" >
   <i type="int" name="LORBIT">     0</i>
   <v name="RWIGS">     -1.00000000     -1.00000000</v>
   <i type="int" name="NEDOS">   301</i>
   <i name="EMIN">     10.00000000</i>
   <i name="EMAX">    -10.00000000</i>
   <i name="EFERMI">      0.00000000</i>
  </separator>
  <separator name="writing" >
   <i type="int" name="NWRITE">     2</i>
   <i type="logical" name="LWAVE"> F  </i>
   <i type="logical" name="LDOWNSAMPLE"> F  </i>
   <i type="logical" name="LCHARG"> T  </i>
   <i type="logical" name="LPARD"> F  </i>
   <i type="logical" name="LVTOT"> F  </i>
   <i type="logical" name="LVHAR"> F  </i>
   <i type="logical" name="LELF"> F  </i>
   <i type="logical" name="LOPTICS"> F  </i>
   <v name="STM">      0.00000000      0.00000000      0.00000000      0.00000000      0.00000000      0.00000000      0.00000000</v>
  </separator>
  <separator name="performance" >
   <i type="int" name="NPAR">     1</i>
   <i type="int" name="NSIM">     4</i>
   <i type="int" name="NBLK">    -1</i>
   <i type="logical" name="LPLANE"> T  </i>
   <i type="logical" name="LSCALAPACK"> T  </i>
   <i type="logical" name="LSCAAWARE"> F  </i>
   <i type="logical" name="LSCALU"> F  </i>
   <i type="logical" name="LASYNC"> F  </i>
   <i type="logical" name="LORBITALREAL"> F  </i>
  </separator>
  <separator name="miscellaneous" >
   <i type="int" name="IDIOT">     3</i>
   <i type="int" name="ISPECIAL">     0</i>
   <i type="logical" name="LMUSIC"> F  </i>
   <v name="POMASS">    107.86800000     78.96000000</v>
   <v name="DARWINR">      0.00000000      0.00000000</v>
   <v name="DARWINV">      1.00000000      1.00000000</v>
   <i type="logical" name="LCORR"> T  </i>
  </separator>
  <i type="logical" name="GGA_COMPAT"> T  </i>
  <i type="logical" name="LBERRY"> F  </i>
  <i type="int" name="ICORELEVEL">     0</i>
  <i type="logical" name="LDAU"> F  </i>
  <i type="int" name="I_CONSTRAINED_M">     0</i>
  <separator name="electronic exchange-correlation" >
   <i type="string" name="GGA">PS</i>
   <i type="int" name="VOSKOWN">     0</i>
   <i type="logical" name="LHFCALC"> F  </i>
   <i type="string" name="PRECFOCK"></i>
   <i type="logical" name="LSYMGRAD"> F  </i>
   <i type="logical" name="LHFONE"> F  </i>
   <i type="logical" name="LRHFCALC"> F  </i>
   <i type="logical" name="LTHOMAS"> F  </i>
   <i type="logical" name="LMODELHF"> F  </i>
   <i name="ENCUT4O">     -1.00000000</i>
   <i type="int" name="EXXOEP">     0</i>
   <i type="int" name="FOURORBIT">     0</i>
   <i name="AEXX">      0.00000000</i>
   <i name="HFALPHA">      0.00000000</i>
   <i name="MCALPHA">      0.00000000</i>
   <i name="ALDAX">      1.00000000</i>
   <i name="AGGAX">      1.00000000</i>
   <i name="ALDAC">      1.00000000</i>
   <i name="AGGAC">      1.00000000</i>
   <i type="int" name="NKREDX">     1</i>
   <i type="int" name="NKREDY">     1</i>
   <i type="int" name="NKREDZ">     1</i>
   <i type="logical" name="SHIFTRED"> F  </i>
   <i type="logical" name="ODDONLY"> F  </i>
   <i type="logical" name="EVENONLY"> F  </i>
   <i type="int" name="LMAXFOCK">     0</i>
   <i type="int" name="NMAXFOCKAE">     0</i>
   <i type="logical" name="LFOCKAEDFT"> F  </i>
   <i name="HFSCREEN">      0.00000000</i>
   <i name="HFSCREENC">      0.00000000</i>
   <i type="int" name="NBANDSGWLOW">     0</i>
  </separator>
  <separator name="vdW DFT" >
   <i type="logical" name="LUSE_VDW"> F  </i>
   <i name="Zab_VDW">     -0.84910000</i>
   <i name="PARAM1">      0.12340000</i>
   <i name="PARAM2">      1.00000000</i>
   <i name="PARAM3">      0.00000000</i>
  </separator>
  <separator name="model GW" >
   <i type="int" name="MODEL_GW">     0</i>
   <i name="MODEL_EPS0">     11.69349825</i>
   <i name="MODEL_ALPHA">      1.00000000</i>
  </separator>
  <separator name="linear response parameters" >
   <i type="logical" name="LEPSILON"> F  </i>
   <i type="logical" name="LRPA"> F  </i>
   <i type="logical" name="LNABLA"> F  </i>
   <i type="logical" name="LVEL"> F  </i>
   <i type="int" name="KINTER">     0</i>
   <i name="CSHIFT">      0.10000000</i>
   <i name="OMEGAMAX">     -1.00000000</i>
   <i name="DEG_THRESHOLD">      0.00200000</i>
   <i name="RTIME">     -0.10000000</i>
   <i name="WPLASMAI">      0.00000000</i>
   <v name="DFIELD">      0.00000000      0.00000000      0.00000000</v>
   <v name="WPLASMA">      0.00000000      0.00000000      0.00000000      0.00000000      0.00000000      0.00000000      0.00000000      0.00000000      0.00000000</v>
  </separator>
  <separator name="orbital magnetization" >
   <i type="logical" name="NUCIND"> F  </i>
   <v name="MAGPOS">      0.00000000      0.00000000      0.00000000</v>
   <i type="logical" name="LNICSALL"> T  </i>
   <i type="logical" name="ORBITALMAG"> F  </i>
   <i type="logical" name="LMAGBLOCH"> F  </i>
   <i type="logical" name="LCHIMAG"> F  </i>
   <i type="logical" name="LGAUGE"> T  </i>
   <i type="int" name="MAGATOM">     0</i>
   <v name="MAGDIPOL">      0.00000000      0.00000000      0.00000000</v>
   <v name="AVECCONST">      0.00000000      0.00000000      0.00000000</v>
  </separator>
  <separator name="response functions" >
   <i type="logical" name="LADDER"> F  </i>
   <i type="logical" name="LRPAFORCE"> F  </i>
   <i type="logical" name="LFXC"> F  </i>
   <i type="logical" name="LHARTREE"> T  </i>
   <i type="int" name="IBSE">     0</i>
   <v type="int" name="KPOINT">    -1     0     0     0</v>
   <i type="logical" name="LTCTE"> F  </i>
   <i type="logical" name="LTETE"> F  </i>
   <i type="logical" name="LTRIPLET"> F  </i>
   <i type="logical" name="LFXCEPS"> F  </i>
   <i type="logical" name="LFXHEG"> F  </i>
   <i type="int" name="NATURALO">     2</i>
   <i type="logical" name="L2ORDER"> F  </i>
   <i type="logical" name="LMP2LT"> F  </i>
   <i type="logical" name="LUSEW"> F  </i>
   <i name="ENCUTGW">     -2.00000000</i>
   <i name="ENCUTGWSOFT">     -2.00000000</i>
   <i name="ENCUTLF">     -1.00000000</i>
   <i type="int" name="LMAXMP2">    -1</i>
   <i name="SCISSOR">      0.00000000</i>
   <i type="int" name="NOMEGA">     0</i>
   <i type="int" name="NOMEGAR">     0</i>
   <i type="int" name="NBANDSGW">    -1</i>
   <i type="int" name="NBANDSO">    -1</i>
   <i type="int" name="NBANDSV">    -1</i>
   <i type="int" name="NELM">   200</i>
   <i type="int" name="NELMHF">     1</i>
   <i type="int" name="DIM">     3</i>
   <i type="int" name="ANTIRES">     0</i>
   <i name="OMEGAMAX">    -30.00000000</i>
   <i name="OMEGAMIN">    -30.00000000</i>
   <i name="OMEGATL">   -200.00000000</i>
   <i type="int" name="OMEGAGRID">   140</i>
   <i name="CSHIFT">     -0.10000000</i>
   <i type="logical" name="SELFENERGY"> F  </i>
   <i type="logical" name="LSPECTRAL"> F  </i>
   <i type="logical" name="LSPECTRALGW"> F  </i>
   <i type="logical" name="LSINGLES"> F  </i>
   <i type="logical" name="LFERMIGW"> F  </i>
   <i type="logical" name="ODDONLYGW"> F  </i>
   <i type="logical" name="EVENONLYGW"> F  </i>
   <i type="int" name="NKREDLFX">     1</i>
   <i type="int" name="NKREDLFY">     1</i>
   <i type="int" name="NKREDLFZ">     1</i>
   <i type="int" name="MAXMEM">  2800</i>
   <i type="int" name="TELESCOPE">     0</i>
   <i type="int" name="TAUPAR">     1</i>
   <i type="int" name="OMEGAPAR">    -1</i>
   <i name="LAMBDA">      1.00000000</i>
  </separator>
  <separator name="External order field" >
   <i name="OFIELD_KAPPA">      0.00000000</i>
   <v name="OFIELD_K">      0.00000000      0.00000000      0.00000000</v>
   <i name="OFIELD_Q6_NEAR">      0.00000000</i>
   <i name="OFIELD_Q6_FAR">      0.00000000</i>
   <i name="OFIELD_A">      0.00000000</i>
  </separator>
 </parameters>
 <atominfo>
  <atoms>     144 </atoms>
  <types>       2 </types>
  <array name="atoms" >
   <dimension dim="1">ion</dimension>
   <field type="string">element</field>
   <field type="int">atomtype</field>
   <set>
    <rc><c>Ag</c><c>   1</c></rc>
    <rc><c>Ag</c><c>   1</c></rc>
    <rc><c>Ag</c><c>   1</c></rc>
    <rc><c>Ag</c><c>   1</c></rc>
    <rc><c>Ag</c><c>   1</c></rc>
    <rc><c>Ag</c><c>   1</c></rc>
    <rc><c>Ag</c><c>   1</c></rc>
    <rc><c>Ag</c><c>   1</c></rc>
    <rc><c>Ag</c><c>   1</c></rc>
    <rc><c>Ag</c><c>   1</c></rc>
    <rc><c>Ag</c><c>   1</c></rc>
    <rc><c>Ag</c><c>   1</c></rc>
    <rc><c>Ag</c><c>   1</c></rc>
    <rc><c>Ag</c><c>   1</c></rc>
    <rc><c>Ag</c><c>   1</c></rc>
    <rc><c>Ag</c><c>   1</c></rc>
    <rc><c>Ag</c><c>   1</c></rc>
    <rc><c>Ag</c><c>   1</c></rc>
    <rc><c>Ag</c><c>   1</c></rc>
    <rc><c>Ag</c><c>   1</c></rc>
    <rc><c>Ag</c><c>   1</c></rc>
    <rc><c>Ag</c><c>   1</c></rc>
    <rc><c>Ag</c><c>   1</c></rc>
    <rc><c>Ag</c><c>   1</c></rc>
    <rc><c>Ag</c><c>   1</c></rc>
    <rc><c>Ag</c><c>   1</c></rc>
    <rc><c>Ag</c><c>   1</c></rc>
    <rc><c>Ag</c><c>   1</c></rc>
    <rc><c>Ag</c><c>   1</c></rc>
    <rc><c>Ag</c><c>   1</c></rc>
    <rc><c>Ag</c><c>   1</c></rc>
    <rc><c>Ag</c><c>   1</c></rc>
    <rc><c>Ag</c><c>   1</c></rc>
    <rc><c>Ag</c><c>   1</c></rc>
    <rc><c>Ag</c><c>   1</c></rc>
    <rc><c>Ag</c><c>   1</c></rc>
    <rc><c>Ag</c><c>   1</c></rc>
    <rc><c>Ag</c><c>   1</c></rc>
    <rc><c>Ag</c><c>   1</c></rc>
    <rc><c>Ag</c><c>   1</c></rc>
    <rc><c>Ag</c><c>   1</c></rc>
    <rc><c>Ag</c><c>   1</c></rc>
    <rc><c>Ag</c><c>   1</c></rc>
    <rc><c>Ag</c><c>   1</c></rc>
    <rc><c>Ag</c><c>   1</c></rc>
    <rc><c>Ag</c><c>   1</c></rc>
    <rc><c>Ag</c><c>   1</c></rc>
    <rc><c>Ag</c><c>   1</c></rc>
    <rc><c>Ag</c><c>   1</c></rc>
    <rc><c>Ag</c><c>   1</c></rc>
    <rc><c>Ag</c><c>   1</c></rc>
    <rc><c>Ag</c><c>   1</c></rc>
    <rc><c>Ag</c><c>   1</c></rc>
    <rc><c>Ag</c><c>   1</c></rc>
    <rc><c>Ag</c><c>   1</c></rc>
    <rc><c>Ag</c><c>   1</c></rc>
    <rc><c>Ag</c><c>   1</c></rc>
    <rc><c>Ag</c><c>   1</c></rc>
    <rc><c>Ag</c><c>   1</c></rc>
    <rc><c>Ag</c><c>   1</c></rc>
    <rc><c>Ag</c><c>   1</c></rc>
    <rc><c>Ag</c><c>   1</c></rc>
    <rc><c>Ag</c><c>   1</c></rc>
    <rc><c>Ag</c><c>   1</c></rc>
    <rc><c>Ag</c><c>   1</c></rc>
    <rc><c>Ag</c><c>   1</c></rc>
    <rc><c>Ag</c><c>   1</c></rc>
    <rc><c>Ag</c><c>   1</c></rc>
    <rc><c>Ag</c><c>   1</c></rc>
    <rc><c>Ag</c><c>   1</c></rc>
    <rc><c>Ag</c><c>   1</c></rc>
    <rc><c>Ag</c><c>   1</c></rc>
    <rc><c>Ag</c><c>   1</c></rc>
    <rc><c>Ag</c><c>   1</c></rc>
    <rc><c>Ag</c><c>   1</c></rc>
    <rc><c>Ag</c><c>   1</c></rc>
    <rc><c>Ag</c><c>   1</c></rc>
    <rc><c>Ag</c><c>   1</c></rc>
    <rc><c>Ag</c><c>   1</c></rc>
    <rc><c>Ag</c><c>   1</c></rc>
    <rc><c>Ag</c><c>   1</c></rc>
    <rc><c>Ag</c><c>   1</c></rc>
    <rc><c>Ag</c><c>   1</c></rc>
    <rc><c>Ag</c><c>   1</c></rc>
    <rc><c>Ag</c><c>   1</c></rc>
    <rc><c>Ag</c><c>   1</c></rc>
    <rc><c>Ag</c><c>   1</c></rc>
    <rc><c>Ag</c><c>   1</c></rc>
    <rc><c>Ag</c><c>   1</c></rc>
    <rc><c>Ag</c><c>   1</c></rc>
    <rc><c>Ag</c><c>   1</c></rc>
    <rc><c>Ag</c><c>   1</c></rc>
    <rc><c>Ag</c><c>   1</c></rc>
    <rc><c>Ag</c><c>   1</c></rc>
    <rc><c>Ag</c><c>   1</c></rc>
    <rc><c>Ag</c><c>   1</c></rc>
    <rc><c>Se</c><c>   2</c></rc>
    <rc><c>Se</c><c>   2</c></rc>
    <rc><c>Se</c><c>   2</c></rc>
    <rc><c>Se</c><c>   2</c></rc>
    <rc><c>Se</c><c>   2</c></rc>
    <rc><c>Se</c><c>   2</c></rc>
    <rc><c>Se</c><c>   2</c></rc>
    <rc><c>Se</c><c>   2</c></rc>
    <rc><c>Se</c><c>   2</c></rc>
    <rc><c>Se</c><c>   2</c></rc>
    <rc><c>Se</c><c>   2</c></rc>
    <rc><c>Se</c><c>   2</c></rc>
    <rc><c>Se</c><c>   2</c></rc>
    <rc><c>Se</c><c>   2</c></rc>
    <rc><c>Se</c><c>   2</c></rc>
    <rc><c>Se</c><c>   2</c></rc>
    <rc><c>Se</c><c>   2</c></rc>
    <rc><c>Se</c><c>   2</c></rc>
    <rc><c>Se</c><c>   2</c></rc>
    <rc><c>Se</c><c>   2</c></rc>
    <rc><c>Se</c><c>   2</c></rc>
    <rc><c>Se</c><c>   2</c></rc>
    <rc><c>Se</c><c>   2</c></rc>
    <rc><c>Se</c><c>   2</c></rc>
    <rc><c>Se</c><c>   2</c></rc>
    <rc><c>Se</c><c>   2</c></rc>
    <rc><c>Se</c><c>   2</c></rc>
    <rc><c>Se</c><c>   2</c></rc>
    <rc><c>Se</c><c>   2</c></rc>
    <rc><c>Se</c><c>   2</c></rc>
    <rc><c>Se</c><c>   2</c></rc>
    <rc><c>Se</c><c>   2</c></rc>
    <rc><c>Se</c><c>   2</c></rc>
    <rc><c>Se</c><c>   2</c></rc>
    <rc><c>Se</c><c>   2</c></rc>
    <rc><c>Se</c><c>   2</c></rc>
    <rc><c>Se</c><c>   2</c></rc>
    <rc><c>Se</c><c>   2</c></rc>
    <rc><c>Se</c><c>   2</c></rc>
    <rc><c>Se</c><c>   2</c></rc>
    <rc><c>Se</c><c>   2</c></rc>
    <rc><c>Se</c><c>   2</c></rc>
    <rc><c>Se</c><c>   2</c></rc>
    <rc><c>Se</c><c>   2</c></rc>
    <rc><c>Se</c><c>   2</c></rc>
    <rc><c>Se</c><c>   2</c></rc>
    <rc><c>Se</c><c>   2</c></rc>
    <rc><c>Se</c><c>   2</c></rc>
   </set>
  </array>
  <array name="atomtypes" >
   <dimension dim="1">type</dimension>
   <field type="int">atomspertype</field>
   <field type="string">element</field>
   <field>mass</field>
   <field>valence</field>
   <field type="string">pseudopotential</field>
   <set>
    <rc><c>  96</c><c>Ag</c><c>    107.86800000</c><c>     11.00000000</c><c>  PAW_PBE Ag 02Apr2005                  </c></rc>
    <rc><c>  48</c><c>Se</c><c>     78.96000000</c><c>      6.00000000</c><c>  PAW_PBE Se 06Sep2000                  </c></rc>
   </set>
  </array>
 </atominfo>
 <structure name="initialpos" >
  <crystal>
   <varray name="basis" >
    <v>      14.01039598       0.00139138       0.00000000 </v>
    <v>      -0.00150196      13.76691092       0.00000000 </v>
    <v>       0.00000000       0.00000000      14.55019386 </v>
   </varray>
   <i name="volume">   2806.43958022 </i>
   <varray name="rec_basis" >
    <v>       0.07137557       0.00000779       0.00000000 </v>
    <v>      -0.00000721       0.07263794       0.00000000 </v>
    <v>       0.00000000       0.00000000       0.06872761 </v>
   </varray>
  </crystal>
  <varray name="positions" >
   <v>       0.42987898       0.17167077       0.33247735 </v>
   <v>       0.92987898       0.17167077       0.33247735 </v>
   <v>       0.42987898       0.67167077       0.33247735 </v>
   <v>       0.92987898       0.67167077       0.33247735 </v>
   <v>       0.42987898       0.17167077       0.66581068 </v>
   <v>       0.92987898       0.17167077       0.66581068 </v>
   <v>       0.42987898       0.67167077       0.66581068 </v>
   <v>       0.92987898       0.67167077       0.66581068 </v>
   <v>       0.42987898       0.17167077       0.99914401 </v>
   <v>       0.92987898       0.17167077       0.99914401 </v>
   <v>       0.42987898       0.67167077       0.99914401 </v>
   <v>       0.92987898       0.67167077       0.99914401 </v>
   <v>       0.07012102       0.32832923       0.33247735 </v>
   <v>       0.57012102       0.32832923       0.33247735 </v>
   <v>       0.07012102       0.82832923       0.33247735 </v>
   <v>       0.57012102       0.82832923       0.33247735 </v>
   <v>       0.07012102       0.32832923       0.66581068 </v>
   <v>       0.57012102       0.32832923       0.66581068 </v>
   <v>       0.07012102       0.82832923       0.66581068 </v>
   <v>       0.57012102       0.82832923       0.66581068 </v>
   <v>       0.07012102       0.32832923       0.99914401 </v>
   <v>       0.57012102       0.32832923       0.99914401 </v>
   <v>       0.07012102       0.82832923       0.99914401 </v>
   <v>       0.57012102       0.82832923       0.99914401 </v>
   <v>       0.32012053       0.42167367       0.05641075 </v>
   <v>       0.82012053       0.42167367       0.05641075 </v>
   <v>       0.32012053       0.92167367       0.05641075 </v>
   <v>       0.82012053       0.92167367       0.05641075 </v>
   <v>       0.32012053       0.42167367       0.38974408 </v>
   <v>       0.82012053       0.42167367       0.38974408 </v>
   <v>       0.32012053       0.92167367       0.38974408 </v>
   <v>       0.82012053       0.92167367       0.38974408 </v>
   <v>       0.32012053       0.42167367       0.72307741 </v>
   <v>       0.82012053       0.42167367       0.72307741 </v>
   <v>       0.32012053       0.92167367       0.72307741 </v>
   <v>       0.82012053       0.92167367       0.72307741 </v>
   <v>       0.17987947       0.07832633       0.05641075 </v>
   <v>       0.67987947       0.07832633       0.05641075 </v>
   <v>       0.17987947       0.57832633       0.05641075 </v>
   <v>       0.67987947       0.57832633       0.05641075 </v>
   <v>       0.17987947       0.07832633       0.38974408 </v>
   <v>       0.67987947       0.07832633       0.38974408 </v>
   <v>       0.17987947       0.57832633       0.38974408 </v>
   <v>       0.67987947       0.57832633       0.38974408 </v>
   <v>       0.17987947       0.07832633       0.72307741 </v>
   <v>       0.67987947       0.07832633       0.72307741 </v>
   <v>       0.17987947       0.57832633       0.72307741 </v>
   <v>       0.67987947       0.57832633       0.72307741 </v>
   <v>       0.17987776       0.32832369       0.16649583 </v>
   <v>       0.67987776       0.32832369       0.16580856 </v>
   <v>       0.17987776       0.82832369       0.16580856 </v>
   <v>       0.67987776       0.82832369       0.16580856 </v>
   <v>       0.17987776       0.32832369       0.49914189 </v>
   <v>       0.67987776       0.32832369       0.49914189 </v>
   <v>       0.17987776       0.82832369       0.49914189 </v>
   <v>       0.67987776       0.82832369       0.49914189 </v>
   <v>       0.17987776       0.32832369       0.83247522 </v>
   <v>       0.67987776       0.32832369       0.83247522 </v>
   <v>       0.17987776       0.82832369       0.83247522 </v>
   <v>       0.67987776       0.82832369       0.83247522 </v>
   <v>       0.32012224       0.17167631       0.16580856 </v>
   <v>       0.82012224       0.17167631       0.16580856 </v>
   <v>       0.32012224       0.67167631       0.16580856 </v>
   <v>       0.82012224       0.67167631       0.16580856 </v>
   <v>       0.32012224       0.17167631       0.49914189 </v>
   <v>       0.82012224       0.17167631       0.49914189 </v>
   <v>       0.32012224       0.67167631       0.49914189 </v>
   <v>       0.82012224       0.67167631       0.49914189 </v>
   <v>       0.32012224       0.17167631       0.83247522 </v>
   <v>       0.82012224       0.17167631       0.83247522 </v>
   <v>       0.32012224       0.67167631       0.83247522 </v>
   <v>       0.82012224       0.67167631       0.83247522 </v>
   <v>       0.42987656       0.42167494       0.22308000 </v>
   <v>       0.92987656       0.42167494       0.22308000 </v>
   <v>       0.42987656       0.92167494       0.22308000 </v>
   <v>       0.92987656       0.92167494       0.22308000 </v>
   <v>       0.42987656       0.42167494       0.55641333 </v>
   <v>       0.92987656       0.42167494       0.55641333 </v>
   <v>       0.42987656       0.92167494       0.55641333 </v>
   <v>       0.92987656       0.92167494       0.55641333 </v>
   <v>       0.42987656       0.42167494       0.88974666 </v>
   <v>       0.92987656       0.42167494       0.88974666 </v>
   <v>       0.42987656       0.92167494       0.88974666 </v>
   <v>       0.92987656       0.92167494       0.88974666 </v>
   <v>       0.07012344       0.07832506       0.22308000 </v>
   <v>       0.57012344       0.07832506       0.22308000 </v>
   <v>       0.07012344       0.57832506       0.22308000 </v>
   <v>       0.57012344       0.57832506       0.22308000 </v>
   <v>       0.07012344       0.07832506       0.55641333 </v>
   <v>       0.57012344       0.07832506       0.55641333 </v>
   <v>       0.07012344       0.57832506       0.55641333 </v>
   <v>       0.57012344       0.57832506       0.55641333 </v>
   <v>       0.07012344       0.07832506       0.88974666 </v>
   <v>       0.57012344       0.07832506       0.88974666 </v>
   <v>       0.07012344       0.57832506       0.88974666 </v>
   <v>       0.57012344       0.57832506       0.88974666 </v>
   <v>       0.00000000       0.00000000       0.05479365 </v>
   <v>       0.50000000       0.00000000       0.05479365 </v>
   <v>       0.00000000       0.50000000       0.05479365 </v>
   <v>       0.50000000       0.50000000       0.05479365 </v>
   <v>       0.00000000       0.00000000       0.38812698 </v>
   <v>       0.50000000       0.00000000       0.38812698 </v>
   <v>       0.00000000       0.50000000       0.38812698 </v>
   <v>       0.50000000       0.50000000       0.38812698 </v>
   <v>       0.00000000       0.00000000       0.72146032 </v>
   <v>       0.50000000       0.00000000       0.72146032 </v>
   <v>       0.00000000       0.50000000       0.72146032 </v>
   <v>       0.50000000       0.50000000       0.72146032 </v>
   <v>       0.25000000       0.00000000       0.22145206 </v>
   <v>       0.75000000       0.00000000       0.22145206 </v>
   <v>       0.25000000       0.50000000       0.22145206 </v>
   <v>       0.75000000       0.50000000       0.22145206 </v>
   <v>       0.25000000       0.00000000       0.55478539 </v>
   <v>       0.75000000       0.00000000       0.55478539 </v>
   <v>       0.25000000       0.50000000       0.55478539 </v>
   <v>       0.75000000       0.50000000       0.55478539 </v>
   <v>       0.25000000       0.00000000       0.88811873 </v>
   <v>       0.75000000       0.00000000       0.88811873 </v>
   <v>       0.25000000       0.50000000       0.88811873 </v>
   <v>       0.75000000       0.50000000       0.88811873 </v>
   <v>       0.00000000       0.25000000       0.16743769 </v>
   <v>       0.50000000       0.25000000       0.16743769 </v>
   <v>       0.00000000       0.75000000       0.16743769 </v>
   <v>       0.50000000       0.75000000       0.16743769 </v>
   <v>       0.00000000       0.25000000       0.50077102 </v>
   <v>       0.50000000       0.25000000       0.50077102 </v>
   <v>       0.00000000       0.75000000       0.50077102 </v>
   <v>       0.50000000       0.75000000       0.50077102 </v>
   <v>       0.00000000       0.25000000       0.83410435 </v>
   <v>       0.50000000       0.25000000       0.83410435 </v>
   <v>       0.00000000       0.75000000       0.83410435 </v>
   <v>       0.50000000       0.75000000       0.83410435 </v>
   <v>       0.25000000       0.25000000       0.00076332 </v>
   <v>       0.75000000       0.25000000       0.00076332 </v>
   <v>       0.25000000       0.75000000       0.00076332 </v>
   <v>       0.75000000       0.75000000       0.00076332 </v>
   <v>       0.25000000       0.25000000       0.33409665 </v>
   <v>       0.75000000       0.25000000       0.33409665 </v>
   <v>       0.25000000       0.75000000       0.33409665 </v>
   <v>       0.75000000       0.75000000       0.33409665 </v>
   <v>       0.25000000       0.25000000       0.66742999 </v>
   <v>       0.75000000       0.25000000       0.66742999 </v>
   <v>       0.25000000       0.75000000       0.66742999 </v>
   <v>       0.75000000       0.75000000       0.66742999 </v>
  </varray>
 </structure>
 <calculation>
  <scstep>
   <time name="dav">  877.74  880.07</time>
   <time name="total">  881.22  883.59</time>
   <energy>
    <i name="alphaZ">   4890.97834259 </i>
    <i name="ewald"> -98843.46036459 </i>
    <i name="hartreedc"> -25788.82928486 </i>
    <i name="XCdc">   -889.86290416 </i>
    <i name="pawpsdc"> 106286.73805879 </i>
    <i name="pawaedc">-101298.59693205 </i>
    <i name="eentropy">     -0.04392130 </i>
    <i name="bandstr">  14366.18703571 </i>
    <i name="atom"> 111881.97810035 </i>
    <i name="e_fr_energy">  10605.08813047 </i>
    <i name="e_wo_entrp">  10605.13205177 </i>
    <i name="e_0_energy">  10605.11009112 </i>
   </energy>
  </scstep>
  <scstep>
   <time name="dav">  917.99  920.39</time>
   <time name="total">  918.00  920.39</time>
   <energy>
    <i name="e_fr_energy">    151.06954091 </i>
    <i name="e_wo_entrp">    151.08192436 </i>
    <i name="e_0_energy">    151.07573264 </i>
   </energy>
  </scstep>
  <scstep>
   <time name="dav">  963.09  965.50</time>
   <time name="total">  963.10  965.51</time>
   <energy>
    <i name="e_fr_energy">   -517.93530599 </i>
    <i name="e_wo_entrp">   -517.92918158 </i>
    <i name="e_0_energy">   -517.93224379 </i>
   </energy>
  </scstep>
  <scstep>
   <time name="dav">  938.61  940.93</time>
   <time name="total">  938.62  940.93</time>
   <energy>
    <i name="e_fr_energy">   -535.41560633 </i>
    <i name="e_wo_entrp">   -535.41015333 </i>
    <i name="e_0_energy">   -535.41287983 </i>
   </energy>
  </scstep>
  <scstep>
   <time name="dav">  953.34  955.80</time>
   <time name="total">  967.51  970.01</time>
   <energy>
    <i name="e_fr_energy">   -535.67057474 </i>
    <i name="e_wo_entrp">   -535.66511388 </i>
    <i name="e_0_energy">   -535.66784431 </i>
   </energy>
  </scstep>
  <scstep>
   <time name="dav">  922.37  924.97</time>
   <time name="total">  940.26  942.90</time>
   <energy>
    <i name="e_fr_energy">   -504.98434082 </i>
    <i name="e_wo_entrp">   -504.96886175 </i>
    <i name="e_0_energy">   -504.97660128 </i>
   </energy>
  </scstep>
  <scstep>
   <time name="dav">  914.13  916.67</time>
   <time name="total">  931.64  934.24</time>
   <energy>
    <i name="e_fr_energy">   -505.65733028 </i>
    <i name="e_wo_entrp">   -505.64157892 </i>
    <i name="e_0_energy">   -505.64945460 </i>
   </energy>
  </scstep>
  <scstep>
   <time name="dav">  936.41  938.83</time>
   <time name="total">  953.91  956.37</time>
   <energy>
    <i name="e_fr_energy">   -505.18196702 </i>
    <i name="e_wo_entrp">   -505.16736209 </i>
    <i name="e_0_energy">   -505.17466456 </i>
   </energy>
  </scstep>
  <scstep>
   <time name="dav">  918.36  920.84</time>
   <time name="total">  935.93  938.50</time>
   <energy>
    <i name="e_fr_energy">   -505.12626533 </i>
    <i name="e_wo_entrp">   -505.11104834 </i>
    <i name="e_0_energy">   -505.11865684 </i>
   </energy>
  </scstep>
  <scstep>
   <time name="dav">  926.93  929.52</time>
   <time name="total">  944.44  947.09</time>
   <energy>
    <i name="e_fr_energy">   -505.12840098 </i>
    <i name="e_wo_entrp">   -505.11312611 </i>
    <i name="e_0_energy">   -505.12076355 </i>
   </energy>
  </scstep>
  <scstep>
   <time name="dav">  935.16  937.63</time>
   <time name="total">  952.62  955.16</time>
   <energy>
    <i name="e_fr_energy">   -505.12827509 </i>
    <i name="e_wo_entrp">   -505.11306847 </i>
    <i name="e_0_energy">   -505.12067178 </i>
   </energy>
  </scstep>
  <scstep>
   <time name="dav">  929.70  932.05</time>
   <time name="total">  947.60  949.99</time>
   <energy>
    <i name="e_fr_energy">   -505.12823311 </i>
    <i name="e_wo_entrp">   -505.11300618 </i>
    <i name="e_0_energy">   -505.12061964 </i>
   </energy>
  </scstep>
  <scstep>
   <time name="dav">  980.78  983.25</time>
   <time name="total">  999.76 1002.28</time>
   <energy>
    <i name="e_fr_energy">   -505.12823305 </i>
    <i name="e_wo_entrp">   -505.11300913 </i>
    <i name="e_0_energy">   -505.12062109 </i>
   </energy>
  </scstep>
  <scstep>
   <time name="dav">  932.61  934.94</time>
   <time name="total">  952.45  954.83</time>
   <energy>
    <i name="e_fr_energy">   -505.12823191 </i>
    <i name="e_wo_entrp">   -505.11300905 </i>
    <i name="e_0_energy">   -505.12062048 </i>
   </energy>
  </scstep>
  <scstep>
   <time name="dav">  958.92  961.40</time>
   <time name="total">  977.77  980.31</time>
   <energy>
    <i name="e_fr_energy">   -505.12823038 </i>
    <i name="e_wo_entrp">   -505.11300778 </i>
    <i name="e_0_energy">   -505.12061908 </i>
   </energy>
  </scstep>
  <scstep>
   <time name="dav">  877.22  879.45</time>
   <time name="total">  896.42  898.70</time>
   <energy>
    <i name="e_fr_energy">   -505.12823043 </i>
    <i name="e_wo_entrp">   -505.11300799 </i>
    <i name="e_0_energy">   -505.12061921 </i>
   </energy>
  </scstep>
  <scstep>
   <time name="dav">  578.18  579.65</time>
   <time name="total">  597.62  599.14</time>
   <energy>
    <i name="e_fr_energy">   -505.12823044 </i>
    <i name="e_wo_entrp">   -505.11300793 </i>
    <i name="e_0_energy">   -505.12061919 </i>
   </energy>
  </scstep>
  <scstep>
   <time name="dav">  564.61  566.01</time>
   <time name="total">  583.04  584.49</time>
   <energy>
    <i name="e_fr_energy">   -505.12823043 </i>
    <i name="e_wo_entrp">   -505.11300789 </i>
    <i name="e_0_energy">   -505.12061916 </i>
   </energy>
  </scstep>
  <scstep>
   <time name="dav">  564.53  566.00</time>
   <time name="total">  568.05  569.52</time>
   <energy>
    <i name="alphaZ">   4890.97834259 </i>
    <i name="ewald"> -98843.46036459 </i>
    <i name="hartreedc"> -24657.66975778 </i>
    <i name="XCdc">   -922.44902657 </i>
    <i name="pawpsdc"> 122252.54884848 </i>
    <i name="pawaedc">-117444.80417938 </i>
    <i name="eentropy">     -0.01522254 </i>
    <i name="bandstr">   2337.76502903 </i>
    <i name="atom"> 111881.97810035 </i>
    <i name="e_fr_energy">   -505.12823043 </i>
    <i name="e_wo_entrp">   -505.11300788 </i>
    <i name="e_0_energy">   -505.12061915 </i>
   </energy>
  </scstep>
  <structure>
   <crystal>
    <varray name="basis" >
     <v>      14.01039598       0.00139138       0.00000000 </v>
     <v>      -0.00150196      13.76691092       0.00000000 </v>
     <v>       0.00000000       0.00000000      14.55019386 </v>
    </varray>
    <i name="volume">   2806.43958022 </i>
    <varray name="rec_basis" >
     <v>       0.07137557       0.00000779       0.00000000 </v>
     <v>      -0.00000721       0.07263794       0.00000000 </v>
     <v>       0.00000000       0.00000000       0.06872761 </v>
    </varray>
   </crystal>
   <varray name="positions" >
    <v>       0.42987898       0.17167077       0.33247735 </v>
    <v>       0.92987898       0.17167077       0.33247735 </v>
    <v>       0.42987898       0.67167077       0.33247735 </v>
    <v>       0.92987898       0.67167077       0.33247735 </v>
    <v>       0.42987898       0.17167077       0.66581068 </v>
    <v>       0.92987898       0.17167077       0.66581068 </v>
    <v>       0.42987898       0.67167077       0.66581068 </v>
    <v>       0.92987898       0.67167077       0.66581068 </v>
    <v>       0.42987898       0.17167077       0.99914401 </v>
    <v>       0.92987898       0.17167077       0.99914401 </v>
    <v>       0.42987898       0.67167077       0.99914401 </v>
    <v>       0.92987898       0.67167077       0.99914401 </v>
    <v>       0.07012102       0.32832923       0.33247735 </v>
    <v>       0.57012102       0.32832923       0.33247735 </v>
    <v>       0.07012102       0.82832923       0.33247735 </v>
    <v>       0.57012102       0.82832923       0.33247735 </v>
    <v>       0.07012102       0.32832923       0.66581068 </v>
    <v>       0.57012102       0.32832923       0.66581068 </v>
    <v>       0.07012102       0.82832923       0.66581068 </v>
    <v>       0.57012102       0.82832923       0.66581068 </v>
    <v>       0.07012102       0.32832923       0.99914401 </v>
    <v>       0.57012102       0.32832923       0.99914401 </v>
    <v>       0.07012102       0.82832923       0.99914401 </v>
    <v>       0.57012102       0.82832923       0.99914401 </v>
    <v>       0.32012053       0.42167367       0.05641075 </v>
    <v>       0.82012053       0.42167367       0.05641075 </v>
    <v>       0.32012053       0.92167367       0.05641075 </v>
    <v>       0.82012053       0.92167367       0.05641075 </v>
    <v>       0.32012053       0.42167367       0.38974408 </v>
    <v>       0.82012053       0.42167367       0.38974408 </v>
    <v>       0.32012053       0.92167367       0.38974408 </v>
    <v>       0.82012053       0.92167367       0.38974408 </v>
    <v>       0.32012053       0.42167367       0.72307741 </v>
    <v>       0.82012053       0.42167367       0.72307741 </v>
    <v>       0.32012053       0.92167367       0.72307741 </v>
    <v>       0.82012053       0.92167367       0.72307741 </v>
    <v>       0.17987947       0.07832633       0.05641075 </v>
    <v>       0.67987947       0.07832633       0.05641075 </v>
    <v>       0.17987947       0.57832633       0.05641075 </v>
    <v>       0.67987947       0.57832633       0.05641075 </v>
    <v>       0.17987947       0.07832633       0.38974408 </v>
    <v>       0.67987947       0.07832633       0.38974408 </v>
    <v>       0.17987947       0.57832633       0.38974408 </v>
    <v>       0.67987947       0.57832633       0.38974408 </v>
    <v>       0.17987947       0.07832633       0.72307741 </v>
    <v>       0.67987947       0.07832633       0.72307741 </v>
    <v>       0.17987947       0.57832633       0.72307741 </v>
    <v>       0.67987947       0.57832633       0.72307741 </v>
    <v>       0.17987776       0.32832369       0.16649583 </v>
    <v>       0.67987776       0.32832369       0.16580856 </v>
    <v>       0.17987776       0.82832369       0.16580856 </v>
    <v>       0.67987776       0.82832369       0.16580856 </v>
    <v>       0.17987776       0.32832369       0.49914189 </v>
    <v>       0.67987776       0.32832369       0.49914189 </v>
    <v>       0.17987776       0.82832369       0.49914189 </v>
    <v>       0.67987776       0.82832369       0.49914189 </v>
    <v>       0.17987776       0.32832369       0.83247522 </v>
    <v>       0.67987776       0.32832369       0.83247522 </v>
    <v>       0.17987776       0.82832369       0.83247522 </v>
    <v>       0.67987776       0.82832369       0.83247522 </v>
    <v>       0.32012224       0.17167631       0.16580856 </v>
    <v>       0.82012224       0.17167631       0.16580856 </v>
    <v>       0.32012224       0.67167631       0.16580856 </v>
    <v>       0.82012224       0.67167631       0.16580856 </v>
    <v>       0.32012224       0.17167631       0.49914189 </v>
    <v>       0.82012224       0.17167631       0.49914189 </v>
    <v>       0.32012224       0.67167631       0.49914189 </v>
    <v>       0.82012224       0.67167631       0.49914189 </v>
    <v>       0.32012224       0.17167631       0.83247522 </v>
    <v>       0.82012224       0.17167631       0.83247522 </v>
    <v>       0.32012224       0.67167631       0.83247522 </v>
    <v>       0.82012224       0.67167631       0.83247522 </v>
    <v>       0.42987656       0.42167494       0.22308000 </v>
    <v>       0.92987656       0.42167494       0.22308000 </v>
    <v>       0.42987656       0.92167494       0.22308000 </v>
    <v>       0.92987656       0.92167494       0.22308000 </v>
    <v>       0.42987656       0.42167494       0.55641333 </v>
    <v>       0.92987656       0.42167494       0.55641333 </v>
    <v>       0.42987656       0.92167494       0.55641333 </v>
    <v>       0.92987656       0.92167494       0.55641333 </v>
    <v>       0.42987656       0.42167494       0.88974666 </v>
    <v>       0.92987656       0.42167494       0.88974666 </v>
    <v>       0.42987656       0.92167494       0.88974666 </v>
    <v>       0.92987656       0.92167494       0.88974666 </v>
    <v>       0.07012344       0.07832506       0.22308000 </v>
    <v>       0.57012344       0.07832506       0.22308000 </v>
    <v>       0.07012344       0.57832506       0.22308000 </v>
    <v>       0.57012344       0.57832506       0.22308000 </v>
    <v>       0.07012344       0.07832506       0.55641333 </v>
    <v>       0.57012344       0.07832506       0.55641333 </v>
    <v>       0.07012344       0.57832506       0.55641333 </v>
    <v>       0.57012344       0.57832506       0.55641333 </v>
    <v>       0.07012344       0.07832506       0.88974666 </v>
    <v>       0.57012344       0.07832506       0.88974666 </v>
    <v>       0.07012344       0.57832506       0.88974666 </v>
    <v>       0.57012344       0.57832506       0.88974666 </v>
    <v>       0.00000000       0.00000000       0.05479365 </v>
    <v>       0.50000000       0.00000000       0.05479365 </v>
    <v>       0.00000000       0.50000000       0.05479365 </v>
    <v>       0.50000000       0.50000000       0.05479365 </v>
    <v>       0.00000000       0.00000000       0.38812698 </v>
    <v>       0.50000000       0.00000000       0.38812698 </v>
    <v>       0.00000000       0.50000000       0.38812698 </v>
    <v>       0.50000000       0.50000000       0.38812698 </v>
    <v>       0.00000000       0.00000000       0.72146032 </v>
    <v>       0.50000000       0.00000000       0.72146032 </v>
    <v>       0.00000000       0.50000000       0.72146032 </v>
    <v>       0.50000000       0.50000000       0.72146032 </v>
    <v>       0.25000000       0.00000000       0.22145206 </v>
    <v>       0.75000000       0.00000000       0.22145206 </v>
    <v>       0.25000000       0.50000000       0.22145206 </v>
    <v>       0.75000000       0.50000000       0.22145206 </v>
    <v>       0.25000000       0.00000000       0.55478539 </v>
    <v>       0.75000000       0.00000000       0.55478539 </v>
    <v>       0.25000000       0.50000000       0.55478539 </v>
    <v>       0.75000000       0.50000000       0.55478539 </v>
    <v>       0.25000000       0.00000000       0.88811873 </v>
    <v>       0.75000000       0.00000000       0.88811873 </v>
    <v>       0.25000000       0.50000000       0.88811873 </v>
    <v>       0.75000000       0.50000000       0.88811873 </v>
    <v>       0.00000000       0.25000000       0.16743769 </v>
    <v>       0.50000000       0.25000000       0.16743769 </v>
    <v>       0.00000000       0.75000000       0.16743769 </v>
    <v>       0.50000000       0.75000000       0.16743769 </v>
    <v>       0.00000000       0.25000000       0.50077102 </v>
    <v>       0.50000000       0.25000000       0.50077102 </v>
    <v>       0.00000000       0.75000000       0.50077102 </v>
    <v>       0.50000000       0.75000000       0.50077102 </v>
    <v>       0.00000000       0.25000000       0.83410435 </v>
    <v>       0.50000000       0.25000000       0.83410435 </v>
    <v>       0.00000000       0.75000000       0.83410435 </v>
    <v>       0.50000000       0.75000000       0.83410435 </v>
    <v>       0.25000000       0.25000000       0.00076332 </v>
    <v>       0.75000000       0.25000000       0.00076332 </v>
    <v>       0.25000000       0.75000000       0.00076332 </v>
    <v>       0.75000000       0.75000000       0.00076332 </v>
    <v>       0.25000000       0.25000000       0.33409665 </v>
    <v>       0.75000000       0.25000000       0.33409665 </v>
    <v>       0.25000000       0.75000000       0.33409665 </v>
    <v>       0.75000000       0.75000000       0.33409665 </v>
    <v>       0.25000000       0.25000000       0.66742999 </v>
    <v>       0.75000000       0.25000000       0.66742999 </v>
    <v>       0.25000000       0.75000000       0.66742999 </v>
    <v>       0.75000000       0.75000000       0.66742999 </v>
   </varray>
  </structure>
  <varray name="forces" >
   <v>       0.00049874      -0.00004964      -0.00012163 </v>
   <v>      -0.00014465      -0.00007492      -0.00017651 </v>
   <v>       0.00001267       0.00012377      -0.00003030 </v>
   <v>      -0.00003234       0.00009312      -0.00000536 </v>
   <v>      -0.00003660       0.00008520       0.00026078 </v>
   <v>      -0.00002830       0.00009301       0.00026049 </v>
   <v>      -0.00001737       0.00005377      -0.00001617 </v>
   <v>      -0.00002015       0.00003648      -0.00001613 </v>
   <v>      -0.00087933       0.00011769      -0.00017482 </v>
   <v>       0.00015425       0.00012083      -0.00012034 </v>
   <v>      -0.00003910       0.00000136      -0.00000562 </v>
   <v>      -0.00000421      -0.00003052      -0.00003067 </v>
   <v>      -0.00799089       0.00064763       0.01045903 </v>
   <v>       0.00005452      -0.00008081      -0.00008068 </v>
   <v>      -0.00003213      -0.00007365      -0.00005136 </v>
   <v>       0.00002879      -0.00009191      -0.00004008 </v>
   <v>       0.00000813      -0.00007926       0.00019943 </v>
   <v>       0.00001242      -0.00006490       0.00009420 </v>
   <v>       0.00000858      -0.00006568      -0.00000987 </v>
   <v>       0.00002426      -0.00006326      -0.00001577 </v>
   <v>       0.00765803      -0.00075375       0.01001985 </v>
   <v>      -0.00007798      -0.00005425      -0.00008059 </v>
   <v>       0.00001449      -0.00007746      -0.00005155 </v>
   <v>       0.00001954      -0.00003606      -0.00004013 </v>
   <v>      -0.00681892      -0.00580356       0.00350154 </v>
   <v>       0.00002562       0.00005117       0.00004070 </v>
   <v>       0.00000937       0.00005064      -0.00006244 </v>
   <v>       0.00005158       0.00001833       0.00004505 </v>
   <v>       0.00086795       0.00089788       0.00126980 </v>
   <v>      -0.00005624       0.00007104       0.00010444 </v>
   <v>       0.00001410       0.00004690       0.00002521 </v>
   <v>      -0.00000398       0.00002400       0.00005677 </v>
   <v>       0.00000160      -0.00001079       0.00010174 </v>
   <v>       0.00004054       0.00000999       0.00009595 </v>
   <v>       0.00002388      -0.00002511       0.00012311 </v>
   <v>       0.00002733       0.00002310       0.00005912 </v>
   <v>       0.00010006       0.00081667      -0.00022330 </v>
   <v>      -0.00004101      -0.00003983       0.00001182 </v>
   <v>      -0.00005856       0.00011756      -0.00022209 </v>
   <v>      -0.00011421      -0.00003416       0.00001176 </v>
   <v>      -0.00016047      -0.00068334       0.00022199 </v>
   <v>      -0.00000132      -0.00003844       0.00005417 </v>
   <v>      -0.00006733       0.00015487       0.00022154 </v>
   <v>      -0.00000651      -0.00001518       0.00005429 </v>
   <v>       0.00001651      -0.00000859       0.00013076 </v>
   <v>      -0.00000529      -0.00001690       0.00007690 </v>
   <v>      -0.00003835      -0.00003112       0.00013136 </v>
   <v>      -0.00000589      -0.00001427       0.00007669 </v>
   <v>       0.00202916      -0.00384024      -0.03728053 </v>
   <v>      -0.00001279       0.00000043       0.00001058 </v>
   <v>      -0.00006467      -0.00002659      -0.00002631 </v>
   <v>       0.00001549      -0.00000034      -0.00002991 </v>
   <v>      -0.00017578       0.00019989       0.00067782 </v>
   <v>       0.00009816       0.00002109       0.00003723 </v>
   <v>      -0.00004760      -0.00003376       0.00004597 </v>
   <v>       0.00000918      -0.00000784      -0.00001789 </v>
   <v>       0.00012279      -0.00024029       0.00067015 </v>
   <v>      -0.00014567       0.00000150       0.00003808 </v>
   <v>       0.00000542       0.00021311       0.00004640 </v>
   <v>      -0.00001226       0.00000824      -0.00001787 </v>
   <v>      -0.00024197       0.00022628      -0.00237139 </v>
   <v>      -0.00010426       0.00002818      -0.00000353 </v>
   <v>       0.00016864       0.00088047      -0.00031303 </v>
   <v>      -0.00003265       0.00001944      -0.00004623 </v>
   <v>       0.00074180      -0.00066008       0.00135050 </v>
   <v>      -0.00008267       0.00001725       0.00001782 </v>
   <v>      -0.00000252       0.00000897       0.00000942 </v>
   <v>      -0.00000560       0.00000641      -0.00001280 </v>
   <v>      -0.00066086       0.00086355       0.00134259 </v>
   <v>       0.00010462       0.00002292       0.00001871 </v>
   <v>       0.00000561      -0.00007332       0.00000934 </v>
   <v>      -0.00000651       0.00000108      -0.00001282 </v>
   <v>       0.00027645       0.00005533      -0.00013587 </v>
   <v>      -0.00008460       0.00021961      -0.00013471 </v>
   <v>       0.00003818       0.00000704       0.00000146 </v>
   <v>      -0.00000104       0.00000891       0.00000154 </v>
   <v>       0.00004327       0.00001052       0.00007093 </v>
   <v>       0.00000095       0.00010822       0.00007082 </v>
   <v>       0.00005051       0.00000322       0.00002148 </v>
   <v>       0.00004030       0.00002398       0.00002140 </v>
   <v>       0.00001842      -0.00003190       0.00001523 </v>
   <v>       0.00006176      -0.00011243       0.00001560 </v>
   <v>      -0.00003772       0.00005791       0.00003313 </v>
   <v>       0.00001959      -0.00000891       0.00003334 </v>
   <v>      -0.00005156      -0.00019337      -0.00019951 </v>
   <v>       0.00000472      -0.00002516      -0.00000216 </v>
   <v>      -0.00035122       0.00017550      -0.00019813 </v>
   <v>      -0.00005187      -0.00000748      -0.00000158 </v>
   <v>      -0.00002450      -0.00006735       0.00005238 </v>
   <v>       0.00001289      -0.00008258       0.00004078 </v>
   <v>      -0.00009186       0.00000189       0.00005256 </v>
   <v>      -0.00001350      -0.00001253       0.00004061 </v>
   <v>       0.00005334       0.00006739      -0.00000140 </v>
   <v>      -0.00005081       0.00007962       0.00003831 </v>
   <v>       0.00000025      -0.00001473      -0.00000125 </v>
   <v>       0.00000008      -0.00000979       0.00003844 </v>
   <v>      -0.00017705       0.00000704      -0.00004546 </v>
   <v>       0.00010380      -0.00003937      -0.00007827 </v>
   <v>       0.00048687      -0.00032182      -0.00013351 </v>
   <v>       0.00024217       0.00010516       0.00005456 </v>
   <v>       0.00000042      -0.00002570       0.00001350 </v>
   <v>      -0.00009962       0.00002018      -0.00006252 </v>
   <v>      -0.00013754       0.00051435       0.00036869 </v>
   <v>       0.00005670      -0.00000977      -0.00015360 </v>
   <v>      -0.00000605      -0.00005584      -0.00024256 </v>
   <v>      -0.00002659      -0.00001914      -0.00014342 </v>
   <v>      -0.00003747       0.00002706      -0.00015177 </v>
   <v>      -0.00004005       0.00004853      -0.00016400 </v>
   <v>       0.00006360       0.00010845       0.00033658 </v>
   <v>       0.00002654      -0.00000374       0.00006010 </v>
   <v>       0.00254933       0.00504231       0.00082428 </v>
   <v>       0.00010625      -0.00006818       0.00007331 </v>
   <v>      -0.00004208       0.00014815      -0.00037547 </v>
   <v>       0.00000082      -0.00001317      -0.00001426 </v>
   <v>       0.00003239      -0.00008051      -0.00011408 </v>
   <v>      -0.00001798      -0.00000915      -0.00003944 </v>
   <v>      -0.00027679      -0.00078771      -0.00017428 </v>
   <v>      -0.00002579      -0.00000486       0.00000645 </v>
   <v>      -0.00004829       0.00006668       0.00024496 </v>
   <v>      -0.00003214      -0.00001241      -0.00000026 </v>
   <v>       0.00091581      -0.00017119      -0.00222051 </v>
   <v>       0.00009504      -0.00002205       0.00010687 </v>
   <v>       0.00006913       0.00003134       0.00000917 </v>
   <v>      -0.00003821       0.00000458       0.00000871 </v>
   <v>       0.00037006       0.00029184      -0.00079136 </v>
   <v>      -0.00056810      -0.00015803      -0.00028915 </v>
   <v>       0.00004622      -0.00000279      -0.00007459 </v>
   <v>      -0.00001918       0.00000728      -0.00005402 </v>
   <v>      -0.00032906      -0.00026071      -0.00076927 </v>
   <v>       0.00070340       0.00026106      -0.00026869 </v>
   <v>       0.00001791       0.00002547      -0.00004560 </v>
   <v>       0.00001773       0.00002277      -0.00004315 </v>
   <v>      -0.00278233       0.00561921       0.00781527 </v>
   <v>       0.00020923      -0.00008622       0.00016921 </v>
   <v>       0.00007222      -0.00005834       0.00028188 </v>
   <v>       0.00004983      -0.00000824       0.00009316 </v>
   <v>       0.00386303      -0.00318492       0.00643740 </v>
   <v>      -0.00006199       0.00006554       0.00013180 </v>
   <v>       0.00008066      -0.00023029      -0.00015748 </v>
   <v>      -0.00001546      -0.00000752       0.00007319 </v>
   <v>       0.00001086      -0.00001075      -0.00036495 </v>
   <v>       0.00000330      -0.00001784      -0.00023095 </v>
   <v>       0.00001282       0.00004496      -0.00010026 </v>
   <v>       0.00001670      -0.00001860       0.00004500 </v>
  </varray>
  <varray name="stress" >
   <v>      -0.16906002       0.00020148      -0.00111890 </v>
   <v>       0.00020164      -0.14893639      -0.00185795 </v>
   <v>      -0.00111897      -0.00185803      -0.15983082 </v>
  </varray>
  <energy>
   <i name="e_fr_energy">   -505.12823043 </i>
   <i name="e_wo_entrp">   -505.12061915 </i>
   <i name="e_0_energy">     -0.01522254 </i>
  </energy>
  <time name="totalsc">18728.0118777.35</time>
  <eigenvalues>
   <array>
    <dimension dim="1">band</dimension>
    <dimension dim="2">kpoint</dimension>
    <dimension dim="3">spin</dimension>
    <field>eigene</field>
    <field>occ</field>
    <set>
     <set comment="spin 1">
      <set comment="kpoint 1">
       <r>   -7.4639    1.0000 </r>
       <r>   -7.2298    1.0000 </r>
       <r>   -7.2293    1.0000 </r>
       <r>   -7.2157    1.0000 </r>
       <r>   -7.2157    1.0000 </r>
       <r>   -7.1644    1.0000 </r>
       <r>   -7.1643    1.0000 </r>
       <r>   -7.0701    1.0000 </r>
       <r>   -7.0695    1.0000 </r>
       <r>   -7.0695    1.0000 </r>
       <r>   -7.0691    1.0000 </r>
       <r>   -7.0094    1.0000 </r>
       <r>   -7.0093    1.0000 </r>
       <r>   -7.0090    1.0000 </r>
       <r>   -7.0087    1.0000 </r>
       <r>   -6.9940    1.0000 </r>
       <r>   -6.9938    1.0000 </r>
       <r>   -6.9938    1.0000 </r>
       <r>   -6.9938    1.0000 </r>
       <r>   -6.9476    1.0000 </r>
       <r>   -6.9353    1.0000 </r>
       <r>   -6.9350    1.0000 </r>
       <r>   -6.9197    1.0000 </r>
       <r>   -6.9195    1.0000 </r>
       <r>   -6.9191    1.0000 </r>
       <r>   -6.9191    1.0000 </r>
       <r>   -6.9190    1.0000 </r>
       <r>   -6.9190    1.0000 </r>
       <r>   -6.9190    1.0000 </r>
       <r>   -6.9182    1.0000 </r>
       <r>   -6.8369    1.0000 </r>
       <r>   -6.8368    1.0000 </r>
       <r>   -6.8366    1.0000 </r>
       <r>   -6.8363    1.0000 </r>
       <r>   -6.8238    1.0000 </r>
       <r>   -6.8181    1.0000 </r>
       <r>   -6.8180    1.0000 </r>
       <r>   -6.7729    1.0000 </r>
       <r>   -6.7724    1.0000 </r>
       <r>   -6.7674    1.0000 </r>
       <r>   -6.7669    1.0000 </r>
       <r>   -6.7668    1.0000 </r>
       <r>   -6.7664    1.0000 </r>
       <r>   -6.7547    1.0000 </r>
       <r>   -6.7547    1.0000 </r>
       <r>   -6.7402    1.0000 </r>
       <r>   -6.7398    1.0000 </r>
       <r>   -6.6844    1.0000 </r>
       <r>   -0.3461    1.0000 </r>
       <r>    0.0937    1.0000 </r>
       <r>    0.0941    1.0000 </r>
       <r>    0.0941    1.0000 </r>
       <r>    0.0942    1.0000 </r>
       <r>    0.0943    1.0000 </r>
       <r>    0.0945    1.0000 </r>
       <r>    0.0945    1.0000 </r>
       <r>    0.0949    1.0000 </r>
       <r>    0.1075    1.0000 </r>
       <r>    0.1077    1.0000 </r>
       <r>    0.1080    1.0000 </r>
       <r>    0.1082    1.0000 </r>
       <r>    0.1521    1.0000 </r>
       <r>    0.1522    1.0000 </r>
       <r>    0.1523    1.0000 </r>
       <r>    0.1524    1.0000 </r>
       <r>    0.1581    1.0000 </r>
       <r>    0.1582    1.0000 </r>
       <r>    0.1596    1.0000 </r>
       <r>    0.1596    1.0000 </r>
       <r>    0.2007    1.0000 </r>
       <r>    0.2009    1.0000 </r>
       <r>    0.2010    1.0000 </r>
       <r>    0.2012    1.0000 </r>
       <r>    0.2368    1.0000 </r>
       <r>    0.2368    1.0000 </r>
       <r>    0.2565    1.0000 </r>
       <r>    0.2571    1.0000 </r>
       <r>    0.2821    1.0000 </r>
       <r>    0.3007    1.0000 </r>
       <r>    0.3010    1.0000 </r>
       <r>    0.3229    1.0000 </r>
       <r>    0.4472    1.0000 </r>
       <r>    0.4473    1.0000 </r>
       <r>    0.4508    1.0000 </r>
       <r>    0.4511    1.0000 </r>
       <r>    0.4572    1.0000 </r>
       <r>    0.4574    1.0000 </r>
       <r>    0.4654    1.0000 </r>
       <r>    0.4656    1.0000 </r>
       <r>    0.4659    1.0000 </r>
       <r>    0.4661    1.0000 </r>
       <r>    0.4699    1.0000 </r>
       <r>    0.4700    1.0000 </r>
       <r>    0.4702    1.0000 </r>
       <r>    0.4704    1.0000 </r>
       <r>    0.5112    1.0000 </r>
       <r>    0.5114    1.0000 </r>
       <r>    0.5259    1.0000 </r>
       <r>    0.5263    1.0000 </r>
       <r>    0.5264    1.0000 </r>
       <r>    0.5268    1.0000 </r>
       <r>    0.5971    1.0000 </r>
       <r>    0.6017    1.0000 </r>
       <r>    0.6548    1.0000 </r>
       <r>    0.6549    1.0000 </r>
       <r>    0.6552    1.0000 </r>
       <r>    0.6554    1.0000 </r>
       <r>    0.6615    1.0000 </r>
       <r>    0.6618    1.0000 </r>
       <r>    0.6878    1.0000 </r>
       <r>    0.6879    1.0000 </r>
       <r>    0.7017    1.0000 </r>
       <r>    0.7018    1.0000 </r>
       <r>    0.7020    1.0000 </r>
       <r>    0.7024    1.0000 </r>
       <r>    0.7206    1.0000 </r>
       <r>    0.7208    1.0000 </r>
       <r>    0.7409    1.0000 </r>
       <r>    0.7413    1.0000 </r>
       <r>    0.7485    1.0000 </r>
       <r>    0.8022    1.0000 </r>
       <r>    0.8140    1.0000 </r>
       <r>    0.8144    1.0000 </r>
       <r>    0.8145    1.0000 </r>
       <r>    0.8148    1.0000 </r>
       <r>    0.8302    1.0000 </r>
       <r>    0.8303    1.0000 </r>
       <r>    0.8304    1.0000 </r>
       <r>    0.8306    1.0000 </r>
       <r>    0.8513    1.0000 </r>
       <r>    0.8519    1.0000 </r>
       <r>    0.8520    1.0000 </r>
       <r>    0.8520    1.0000 </r>
       <r>    0.8521    1.0000 </r>
       <r>    0.8522    1.0000 </r>
       <r>    0.8522    1.0000 </r>
       <r>    0.8529    1.0000 </r>
       <r>    0.8952    1.0000 </r>
       <r>    0.8977    1.0000 </r>
       <r>    0.8979    1.0000 </r>
       <r>    0.8992    1.0000 </r>
       <r>    0.8993    1.0000 </r>
       <r>    0.8995    1.0000 </r>
       <r>    0.8997    1.0000 </r>
       <r>    0.9205    1.0000 </r>
       <r>    0.9459    1.0000 </r>
       <r>    0.9460    1.0000 </r>
       <r>    1.0706    1.0000 </r>
       <r>    1.0708    1.0000 </r>
       <r>    1.0709    1.0000 </r>
       <r>    1.0711    1.0000 </r>
       <r>    1.0843    1.0000 </r>
       <r>    1.0845    1.0000 </r>
       <r>    1.0848    1.0000 </r>
       <r>    1.0850    1.0000 </r>
       <r>    1.0851    1.0000 </r>
       <r>    1.0853    1.0000 </r>
       <r>    1.1008    1.0000 </r>
       <r>    1.1012    1.0000 </r>
       <r>    1.1457    1.0000 </r>
       <r>    1.1459    1.0000 </r>
       <r>    1.1460    1.0000 </r>
       <r>    1.1461    1.0000 </r>
       <r>    1.1618    1.0000 </r>
       <r>    1.1618    1.0000 </r>
       <r>    1.1619    1.0000 </r>
       <r>    1.1622    1.0000 </r>
       <r>    1.1757    1.0000 </r>
       <r>    1.1762    1.0000 </r>
       <r>    1.1998    1.0000 </r>
       <r>    1.2240    1.0000 </r>
       <r>    1.2243    1.0000 </r>
       <r>    1.2296    1.0000 </r>
       <r>    1.2297    1.0000 </r>
       <r>    1.2298    1.0000 </r>
       <r>    1.2299    1.0000 </r>
       <r>    1.2299    1.0000 </r>
       <r>    1.2300    1.0000 </r>
       <r>    1.2302    1.0000 </r>
       <r>    1.2306    1.0000 </r>
       <r>    1.2371    1.0000 </r>
       <r>    1.2374    1.0000 </r>
       <r>    1.3413    1.0000 </r>
       <r>    1.3415    1.0000 </r>
       <r>    1.3416    1.0000 </r>
       <r>    1.3418    1.0000 </r>
       <r>    1.3653    1.0000 </r>
       <r>    1.3664    1.0000 </r>
       <r>    1.3665    1.0000 </r>
       <r>    1.3671    1.0000 </r>
       <r>    1.3672    1.0000 </r>
       <r>    1.3735    1.0000 </r>
       <r>    1.3735    1.0000 </r>
       <r>    1.3735    1.0000 </r>
       <r>    1.3737    1.0000 </r>
[...]
       <r>    -1.7770     0.0000    96.0000 </r>
       <r>    -1.7054     0.0000    96.0000 </r>
       <r>    -1.6337     0.0000    96.0000 </r>
       <r>    -1.5620     0.0000    96.0000 </r>
       <r>    -1.4904     0.0000    96.0000 </r>
       <r>    -1.4187     0.0000    96.0000 </r>
       <r>    -1.3471     0.0000    96.0000 </r>
       <r>    -1.2754     0.0000    96.0000 </r>
       <r>    -1.2038     0.0000    96.0000 </r>
       <r>    -1.1321     0.0000    96.0000 </r>
       <r>    -1.0604     0.0000    96.0000 </r>
       <r>    -0.9888     0.0000    96.0000 </r>
       <r>    -0.9171     0.0000    96.0000 </r>
       <r>    -0.8455     0.0000    96.0000 </r>
       <r>    -0.7738     0.0000    96.0000 </r>
       <r>    -0.7022     0.0000    96.0000 </r>
       <r>    -0.6305     0.0000    96.0000 </r>
       <r>    -0.5589     0.0000    96.0000 </r>
       <r>    -0.4872     0.0001    96.0000 </r>
       <r>    -0.4155     0.0861    96.0062 </r>
       <r>    -0.3439     1.7442    96.1312 </r>
       <r>    -0.2722     1.8808    96.2659 </r>
       <r>    -0.2006     8.2080    96.8541 </r>
       <r>    -0.1289    15.3906    97.9569 </r>
       <r>    -0.0573    24.0520    99.6804 </r>
       <r>     0.0144    50.9985   103.3347 </r>
       <r>     0.0861   101.7991   110.6293 </r>
       <r>     0.1577   188.4537   124.1331 </r>
       <r>     0.2294   205.2114   138.8378 </r>
       <r>     0.3010   274.2950   158.4927 </r>
       <r>     0.3727   194.0353   172.3965 </r>
       <r>     0.4443   125.1568   181.3648 </r>
       <r>     0.5160   140.7807   191.4526 </r>
       <r>     0.5876   124.1764   200.3506 </r>
       <r>     0.6593   165.6765   212.2223 </r>
       <r>     0.7310   245.0538   229.7819 </r>
       <r>     0.8026   229.1985   246.2054 </r>
       <r>     0.8743   291.0186   267.0586 </r>
       <r>     0.9459   285.6604   287.5280 </r>
       <r>     1.0176   147.0865   298.0676 </r>
       <r>     1.0892   183.5343   311.2190 </r>
       <r>     1.1609   226.5417   327.4521 </r>
       <r>     1.2325   229.2701   343.8807 </r>
       <r>     1.3042   297.8864   365.2260 </r>
       <r>     1.3759   306.1858   387.1661 </r>
       <r>     1.4475   391.3240   415.2069 </r>
       <r>     1.5192   355.4963   440.6804 </r>
       <r>     1.5908   373.0182   467.4094 </r>
       <r>     1.6625   365.5404   493.6026 </r>
       <r>     1.7341   391.4556   521.6528 </r>
       <r>     1.8058   372.5292   548.3468 </r>
       <r>     1.8775   357.9631   573.9971 </r>
       <r>     1.9491   388.8307   601.8592 </r>
       <r>     2.0208   414.5762   631.5661 </r>
       <r>     2.0924   378.5699   658.6929 </r>
       <r>     2.1641   361.0133   684.5617 </r>
       <r>     2.2357   374.9237   711.4273 </r>
       <r>     2.3074   397.3234   739.8980 </r>
       <r>     2.3790   338.4248   764.1482 </r>
       <r>     2.4507   296.4248   785.3888 </r>
       <r>     2.5224   339.1821   809.6933 </r>
       <r>     2.5940   354.7911   835.1163 </r>
       <r>     2.6657   408.6236   864.3966 </r>
       <r>     2.7373   374.4728   891.2299 </r>
       <r>     2.8090   379.4824   918.4221 </r>
       <r>     2.8806   431.7491   949.3596 </r>
       <r>     2.9523   498.9084   985.1094 </r>
       <r>     3.0240   497.0157  1020.7237 </r>
       <r>     3.0956   369.4933  1047.2001 </r>
       <r>     3.1673   233.8272  1063.9553 </r>
       <r>     3.2389   205.2852  1078.6652 </r>
       <r>     3.3106   170.6616  1090.8942 </r>
       <r>     3.3822   138.2879  1100.8033 </r>
       <r>     3.4539   119.4035  1109.3593 </r>
       <r>     3.5255   157.3801  1120.6366 </r>
       <r>     3.5972   163.2413  1132.3338 </r>
       <r>     3.6689   101.0689  1139.5760 </r>
       <r>     3.7405    96.7915  1146.5117 </r>
       <r>     3.8122    65.0928  1151.1760 </r>
       <r>     3.8838    72.2727  1156.3548 </r>
       <r>     3.9555    73.3378  1161.6099 </r>
       <r>     4.0271    65.3263  1166.2909 </r>
       <r>     4.0988    92.3233  1172.9065 </r>
       <r>     4.1705   103.4514  1180.3194 </r>
       <r>     4.2421   114.3235  1188.5114 </r>
       <r>     4.3138    75.0768  1193.8911 </r>
       <r>     4.3854    72.9141  1199.1158 </r>
       <r>     4.4571    65.3774  1203.8005 </r>
       <r>     4.5287    92.1039  1210.4003 </r>
       <r>     4.6004    93.3674  1217.0907 </r>
       <r>     4.6720   102.5327  1224.4377 </r>
       <r>     4.7437   139.6833  1234.4469 </r>
       <r>     4.8154   137.8303  1244.3233 </r>
       <r>     4.8870    72.5400  1249.5212 </r>
       <r>     4.9587    53.5615  1253.3592 </r>
       <r>     5.0303    55.0653  1257.3050 </r>
       <r>     5.1020    87.1821  1263.5521 </r>
       <r>     5.1736   144.2122  1273.8858 </r>
       <r>     5.2453   108.7300  1281.6770 </r>
       <r>     5.3169    63.0642  1286.1959 </r>
       <r>     5.3886    59.5724  1290.4646 </r>
       <r>     5.4603    69.1626  1295.4206 </r>
       <r>     5.5319    72.5252  1300.6174 </r>
       <r>     5.6036    76.5808  1306.1049 </r>
       <r>     5.6752   110.6130  1314.0310 </r>
       <r>     5.7469   131.9823  1323.4884 </r>
       <r>     5.8185    72.6954  1328.6974 </r>
       <r>     5.8902    64.4647  1333.3167 </r>
       <r>     5.9619    58.4128  1337.5024 </r>
       <r>     6.0335    30.3977  1339.6805 </r>
       <r>     6.1052    18.9289  1341.0369 </r>
       <r>     6.1768    21.5616  1342.5819 </r>
       <r>     6.2485    16.8532  1343.7896 </r>
       <r>     6.3201     8.9612  1344.4317 </r>
       <r>     6.3918     0.9484  1344.4996 </r>
       <r>     6.4634     0.1212  1344.5083 </r>
       <r>     6.5351     1.8961  1344.6442 </r>
       <r>     6.6068     1.7764  1344.7715 </r>
       <r>     6.6784     5.3738  1345.1566 </r>
       <r>     6.7501    22.9573  1346.8016 </r>
       <r>     6.8217    26.0019  1348.6648 </r>
       <r>     6.8934    11.1727  1349.4654 </r>
       <r>     6.9650     6.3092  1349.9175 </r>
       <r>     7.0367     8.9651  1350.5599 </r>
       <r>     7.1084     4.6872  1350.8957 </r>
       <r>     7.1800    21.5433  1352.4394 </r>
       <r>     7.2517    23.9513  1354.1557 </r>
       <r>     7.3233    28.0517  1356.1658 </r>
       <r>     7.3950    31.4224  1358.4174 </r>
       <r>     7.4666    30.3129  1360.5895 </r>
       <r>     7.5383    60.7694  1364.9440 </r>
       <r>     7.6099    71.4196  1370.0616 </r>
       <r>     7.6816    26.7158  1371.9760 </r>
       <r>     7.7533    54.7763  1375.9010 </r>
       <r>     7.8249    69.6203  1380.8898 </r>
       <r>     7.8966    73.2350  1386.1375 </r>
       <r>     7.9682    75.5046  1391.5479 </r>
       <r>     8.0399    65.9927  1396.2766 </r>
       <r>     8.1115    34.3950  1398.7412 </r>
       <r>     8.1832    18.6249  1400.0758 </r>
       <r>     8.2548     8.3338  1400.6730 </r>
       <r>     8.3265    10.4314  1401.4205 </r>
       <r>     8.3982    50.8890  1405.0670 </r>
       <r>     8.4698    34.0888  1407.5097 </r>
       <r>     8.5415    32.2239  1409.8187 </r>
       <r>     8.6131    95.1053  1416.6336 </r>
       <r>     8.6848   104.4875  1424.1207 </r>
       <r>     8.7564    58.5813  1428.3185 </r>
       <r>     8.8281    51.3267  1431.9963 </r>
       <r>     8.8998    33.4242  1434.3914 </r>
       <r>     8.9714    45.8318  1437.6755 </r>
       <r>     9.0431    30.2468  1439.8429 </r>
       <r>     9.1147    22.2093  1441.4343 </r>
       <r>     9.1864    10.2983  1442.1722 </r>
       <r>     9.2580    16.7544  1443.3728 </r>
       <r>     9.3297    53.6127  1447.2145 </r>
       <r>     9.4013    49.6289  1450.7707 </r>
       <r>     9.4730    54.3157  1454.6627 </r>
       <r>     9.5447    38.1675  1457.3977 </r>
       <r>     9.6163    50.8447  1461.0410 </r>
       <r>     9.6880    50.0591  1464.6281 </r>
       <r>     9.7596    47.7390  1468.0488 </r>
       <r>     9.8313    52.5753  1471.8162 </r>
       <r>     9.9029    76.2978  1477.2834 </r>
       <r>     9.9746    55.8065  1481.2823 </r>
       <r>    10.0463   108.4286  1489.0518 </r>
       <r>    10.1179   118.8118  1497.5654 </r>
       <r>    10.1896    42.7833  1500.6311 </r>
       <r>    10.2612    28.6008  1502.6805 </r>
       <r>    10.3329    48.8554  1506.1813 </r>
       <r>    10.4045    56.3212  1510.2171 </r>
       <r>    10.4762    90.3569  1516.6917 </r>
       <r>    10.5478   110.0404  1524.5768 </r>
       <r>    10.6195   111.8321  1532.5902 </r>
       <r>    10.6912    94.1415  1539.3360 </r>
       <r>    10.7628    78.3893  1544.9531 </r>
       <r>    10.8345   107.3945  1552.6486 </r>
       <r>    10.9061    89.7825  1559.0821 </r>
       <r>    10.9778    64.9382  1563.7353 </r>
       <r>    11.0494    34.8691  1566.2339 </r>
       <r>    11.1211    55.5488  1570.2143 </r>
       <r>    11.1928    51.6814  1573.9176 </r>
       <r>    11.2644    44.8638  1577.1323 </r>
       <r>    11.3361    83.1623  1583.0914 </r>
       <r>    11.4077    53.3668  1586.9155 </r>
       <r>    11.4794    55.1402  1590.8666 </r>
       <r>    11.5510    88.7584  1597.2267 </r>
       <r>    11.6227    68.0196  1602.1007 </r>
       <r>    11.6943    46.0656  1605.4016 </r>
       <r>    11.7660    12.0851  1606.2676 </r>
       <r>    11.8377    15.0761  1607.3479 </r>
       <r>    11.9093    36.1835  1609.9406 </r>
       <r>    11.9810    20.6630  1611.4213 </r>
       <r>    12.0526     3.0059  1611.6367 </r>
       <r>    12.1243     4.5154  1611.9602 </r>
       <r>    12.1959     0.5531  1611.9998 </r>
       <r>    12.2676     0.0022  1612.0000 </r>
       <r>    12.3392     0.0000  1612.0000 </r>
       <r>    12.4109     0.0000  1612.0000 </r>
       <r>    12.4826     0.0000  1612.0000 </r>
       <r>    12.5542     0.0000  1612.0000 </r>
       <r>    12.6259     0.0000  1612.0000 </r>
       <r>    12.6975     0.0000  1612.0000 </r>
       <r>    12.7692     0.0000  1612.0000 </r>
       <r>    12.8408     0.0000  1612.0000 </r>
       <r>    12.9125     0.0000  1612.0000 </r>
       <r>    12.9842     0.0000  1612.0000 </r>
       <r>    13.0558     0.0000  1612.0000 </r>
      </set>
     </set>
    </array>
   </total>
  </dos>
 </calculation>
 <structure name="finalpos" >
  <crystal>
   <varray name="basis" >
    <v>      14.01039598       0.00139138       0.00000000 </v>
    <v>      -0.00150196      13.76691092       0.00000000 </v>
    <v>       0.00000000       0.00000000      14.55019386 </v>
   </varray>
   <i name="volume">   2806.43958022 </i>
   <varray name="rec_basis" >
    <v>       0.07137557       0.00000779       0.00000000 </v>
    <v>      -0.00000721       0.07263794       0.00000000 </v>
    <v>       0.00000000       0.00000000       0.06872761 </v>
   </varray>
  </crystal>
  <varray name="positions" >
   <v>       0.42987898       0.17167077       0.33247735 </v>
   <v>       0.92987898       0.17167077       0.33247735 </v>
   <v>       0.42987898       0.67167077       0.33247735 </v>
   <v>       0.92987898       0.67167077       0.33247735 </v>
   <v>       0.42987898       0.17167077       0.66581068 </v>
   <v>       0.92987898       0.17167077       0.66581068 </v>
   <v>       0.42987898       0.67167077       0.66581068 </v>
   <v>       0.92987898       0.67167077       0.66581068 </v>
   <v>       0.42987898       0.17167077       0.99914401 </v>
   <v>       0.92987898       0.17167077       0.99914401 </v>
   <v>       0.42987898       0.67167077       0.99914401 </v>
   <v>       0.92987898       0.67167077       0.99914401 </v>
   <v>       0.07012102       0.32832923       0.33247735 </v>
   <v>       0.57012102       0.32832923       0.33247735 </v>
   <v>       0.07012102       0.82832923       0.33247735 </v>
   <v>       0.57012102       0.82832923       0.33247735 </v>
   <v>       0.07012102       0.32832923       0.66581068 </v>
   <v>       0.57012102       0.32832923       0.66581068 </v>
   <v>       0.07012102       0.82832923       0.66581068 </v>
   <v>       0.57012102       0.82832923       0.66581068 </v>
   <v>       0.07012102       0.32832923       0.99914401 </v>
   <v>       0.57012102       0.32832923       0.99914401 </v>
   <v>       0.07012102       0.82832923       0.99914401 </v>
   <v>       0.57012102       0.82832923       0.99914401 </v>
   <v>       0.32012053       0.42167367       0.05641075 </v>
   <v>       0.82012053       0.42167367       0.05641075 </v>
   <v>       0.32012053       0.92167367       0.05641075 </v>
   <v>       0.82012053       0.92167367       0.05641075 </v>
   <v>       0.32012053       0.42167367       0.38974408 </v>
   <v>       0.82012053       0.42167367       0.38974408 </v>
   <v>       0.32012053       0.92167367       0.38974408 </v>
   <v>       0.82012053       0.92167367       0.38974408 </v>
   <v>       0.32012053       0.42167367       0.72307741 </v>
   <v>       0.82012053       0.42167367       0.72307741 </v>
   <v>       0.32012053       0.92167367       0.72307741 </v>
   <v>       0.82012053       0.92167367       0.72307741 </v>
   <v>       0.17987947       0.07832633       0.05641075 </v>
   <v>       0.67987947       0.07832633       0.05641075 </v>
   <v>       0.17987947       0.57832633       0.05641075 </v>
   <v>       0.67987947       0.57832633       0.05641075 </v>
   <v>       0.17987947       0.07832633       0.38974408 </v>
   <v>       0.67987947       0.07832633       0.38974408 </v>
   <v>       0.17987947       0.57832633       0.38974408 </v>
   <v>       0.67987947       0.57832633       0.38974408 </v>
   <v>       0.17987947       0.07832633       0.72307741 </v>
   <v>       0.67987947       0.07832633       0.72307741 </v>
   <v>       0.17987947       0.57832633       0.72307741 </v>
   <v>       0.67987947       0.57832633       0.72307741 </v>
   <v>       0.17987776       0.32832369       0.16649583 </v>
   <v>       0.67987776       0.32832369       0.16580856 </v>
   <v>       0.17987776       0.82832369       0.16580856 </v>
   <v>       0.67987776       0.82832369       0.16580856 </v>
   <v>       0.17987776       0.32832369       0.49914189 </v>
   <v>       0.67987776       0.32832369       0.49914189 </v>
   <v>       0.17987776       0.82832369       0.49914189 </v>
   <v>       0.67987776       0.82832369       0.49914189 </v>
   <v>       0.17987776       0.32832369       0.83247522 </v>
   <v>       0.67987776       0.32832369       0.83247522 </v>
   <v>       0.17987776       0.82832369       0.83247522 </v>
   <v>       0.67987776       0.82832369       0.83247522 </v>
   <v>       0.32012224       0.17167631       0.16580856 </v>
   <v>       0.82012224       0.17167631       0.16580856 </v>
   <v>       0.32012224       0.67167631       0.16580856 </v>
   <v>       0.82012224       0.67167631       0.16580856 </v>
   <v>       0.32012224       0.17167631       0.49914189 </v>
   <v>       0.82012224       0.17167631       0.49914189 </v>
   <v>       0.32012224       0.67167631       0.49914189 </v>
   <v>       0.82012224       0.67167631       0.49914189 </v>
   <v>       0.32012224       0.17167631       0.83247522 </v>
   <v>       0.82012224       0.17167631       0.83247522 </v>
   <v>       0.32012224       0.67167631       0.83247522 </v>
   <v>       0.82012224       0.67167631       0.83247522 </v>
   <v>       0.42987656       0.42167494       0.22308000 </v>
   <v>       0.92987656       0.42167494       0.22308000 </v>
   <v>       0.42987656       0.92167494       0.22308000 </v>
   <v>       0.92987656       0.92167494       0.22308000 </v>
   <v>       0.42987656       0.42167494       0.55641333 </v>
   <v>       0.92987656       0.42167494       0.55641333 </v>
   <v>       0.42987656       0.92167494       0.55641333 </v>
   <v>       0.92987656       0.92167494       0.55641333 </v>
   <v>       0.42987656       0.42167494       0.88974666 </v>
   <v>       0.92987656       0.42167494       0.88974666 </v>
   <v>       0.42987656       0.92167494       0.88974666 </v>
   <v>       0.92987656       0.92167494       0.88974666 </v>
   <v>       0.07012344       0.07832506       0.22308000 </v>
   <v>       0.57012344       0.07832506       0.22308000 </v>
   <v>       0.07012344       0.57832506       0.22308000 </v>
   <v>       0.57012344       0.57832506       0.22308000 </v>
   <v>       0.07012344       0.07832506       0.55641333 </v>
   <v>       0.57012344       0.07832506       0.55641333 </v>
   <v>       0.07012344       0.57832506       0.55641333 </v>
   <v>       0.57012344       0.57832506       0.55641333 </v>
   <v>       0.07012344       0.07832506       0.88974666 </v>
   <v>       0.57012344       0.07832506       0.88974666 </v>
   <v>       0.07012344       0.57832506       0.88974666 </v>
   <v>       0.57012344       0.57832506       0.88974666 </v>
   <v>       0.00000000       0.00000000       0.05479365 </v>
   <v>       0.50000000       0.00000000       0.05479365 </v>
   <v>       0.00000000       0.50000000       0.05479365 </v>
   <v>       0.50000000       0.50000000       0.05479365 </v>
   <v>       0.00000000       0.00000000       0.38812698 </v>
   <v>       0.50000000       0.00000000       0.38812698 </v>
   <v>       0.00000000       0.50000000       0.38812698 </v>
   <v>       0.50000000       0.50000000       0.38812698 </v>
   <v>       0.00000000       0.00000000       0.72146032 </v>
   <v>       0.50000000       0.00000000       0.72146032 </v>
   <v>       0.00000000       0.50000000       0.72146032 </v>
   <v>       0.50000000       0.50000000       0.72146032 </v>
   <v>       0.25000000       0.00000000       0.22145206 </v>
   <v>       0.75000000       0.00000000       0.22145206 </v>
   <v>       0.25000000       0.50000000       0.22145206 </v>
   <v>       0.75000000       0.50000000       0.22145206 </v>
   <v>       0.25000000       0.00000000       0.55478539 </v>
   <v>       0.75000000       0.00000000       0.55478539 </v>
   <v>       0.25000000       0.50000000       0.55478539 </v>
   <v>       0.75000000       0.50000000       0.55478539 </v>
   <v>       0.25000000       0.00000000       0.88811873 </v>
   <v>       0.75000000       0.00000000       0.88811873 </v>
   <v>       0.25000000       0.50000000       0.88811873 </v>
   <v>       0.75000000       0.50000000       0.88811873 </v>
   <v>       0.00000000       0.25000000       0.16743769 </v>
   <v>       0.50000000       0.25000000       0.16743769 </v>
   <v>       0.00000000       0.75000000       0.16743769 </v>
   <v>       0.50000000       0.75000000       0.16743769 </v>
   <v>       0.00000000       0.25000000       0.50077102 </v>
   <v>       0.50000000       0.25000000       0.50077102 </v>
   <v>       0.00000000       0.75000000       0.50077102 </v>
   <v>       0.50000000       0.75000000       0.50077102 </v>
   <v>       0.00000000       0.25000000       0.83410435 </v>
   <v>       0.50000000       0.25000000       0.83410435 </v>
   <v>       0.00000000       0.75000000       0.83410435 </v>
   <v>       0.50000000       0.75000000       0.83410435 </v>
   <v>       0.25000000       0.25000000       0.00076332 </v>
   <v>       0.75000000       0.25000000       0.00076332 </v>
   <v>       0.25000000       0.75000000       0.00076332 </v>
   <v>       0.75000000       0.75000000       0.00076332 </v>
   <v>       0.25000000       0.25000000       0.33409665 </v>
   <v>       0.75000000       0.25000000       0.33409665 </v>
   <v>       0.25000000       0.75000000       0.33409665 </v>
   <v>       0.75000000       0.75000000       0.33409665 </v>
   <v>       0.25000000       0.25000000       0.66742999 </v>
   <v>       0.75000000       0.25000000       0.66742999 </v>
   <v>       0.25000000       0.75000000       0.66742999 </v>
   <v>       0.75000000       0.75000000       0.66742999 </v>
  </varray>
 </structure>
</modeling>
