 144 144   0   0
  0.1948916E+02  0.1401040E-08  0.1376691E-08  0.1455019E-08  0.5000000E-15
  1.000000000000000E-004
  CAR 
 unknown system                          
     13.06095069     -8.44128445  301      6.26442163      1.00000000
     -8.441  0.0000E+00  0.0000E+00
     -8.370  0.0000E+00  0.0000E+00
     -8.298  0.0000E+00  0.0000E+00
     -8.226  0.0000E+00  0.0000E+00
     -8.155  0.0000E+00  0.0000E+00
     -8.083  0.0000E+00  0.0000E+00
     -8.011  0.0000E+00  0.0000E+00
     -7.940  0.0000E+00  0.0000E+00
     -7.868  0.0000E+00  0.0000E+00
     -7.796  0.0000E+00  0.0000E+00
     -7.725  0.2935E-12  0.2104E-13
     -7.653  0.1581E-06  0.1133E-07
     -7.581  0.1586E-02  0.1137E-03
     -7.510  0.3517E+00  0.2532E-01
     -7.438  0.4313E+01  0.3345E+00
     -7.366  0.1911E+02  0.1704E+01
     -7.294  0.3786E+02  0.4418E+01
     -7.223  0.3949E+02  0.7248E+01
     -7.151  0.6437E+02  0.1186E+02
     -7.079  0.1004E+03  0.1906E+02
     -7.008  0.1265E+03  0.2813E+02
     -6.936  0.2083E+03  0.4306E+02
     -6.864  0.2226E+03  0.5901E+02
     -6.793  0.2575E+03  0.7747E+02
     -6.721  0.2070E+03  0.9231E+02
     -6.649  0.4932E+02  0.9584E+02
     -6.578  0.2206E+01  0.9600E+02
     -6.506  0.7891E-02  0.9600E+02
     -6.434  0.9856E-06  0.9600E+02
     -6.363  0.2883E-11  0.9600E+02
     -6.291  0.0000E+00  0.9600E+02
     -6.219  0.0000E+00  0.9600E+02
     -6.148  0.0000E+00  0.9600E+02
     -6.076  0.0000E+00  0.9600E+02
     -6.004  0.0000E+00  0.9600E+02
     -5.933  0.0000E+00  0.9600E+02
     -5.861  0.0000E+00  0.9600E+02
     -5.789  0.0000E+00  0.9600E+02
     -5.718  0.0000E+00  0.9600E+02
     -5.646  0.0000E+00  0.9600E+02
     -5.574  0.0000E+00  0.9600E+02
     -5.503  0.0000E+00  0.9600E+02
     -5.431  0.0000E+00  0.9600E+02
     -5.359  0.0000E+00  0.9600E+02
     -5.288  0.0000E+00  0.9600E+02
     -5.216  0.0000E+00  0.9600E+02
     -5.144  0.0000E+00  0.9600E+02
     -5.073  0.0000E+00  0.9600E+02
     -5.001  0.0000E+00  0.9600E+02
     -4.929  0.0000E+00  0.9600E+02
     -4.858  0.0000E+00  0.9600E+02
     -4.786  0.0000E+00  0.9600E+02
     -4.714  0.0000E+00  0.9600E+02
     -4.643  0.0000E+00  0.9600E+02
     -4.571  0.0000E+00  0.9600E+02
     -4.499  0.0000E+00  0.9600E+02
     -4.428  0.0000E+00  0.9600E+02
     -4.356  0.0000E+00  0.9600E+02
     -4.284  0.0000E+00  0.9600E+02
     -4.213  0.0000E+00  0.9600E+02
     -4.141  0.0000E+00  0.9600E+02
     -4.069  0.0000E+00  0.9600E+02
     -3.997  0.0000E+00  0.9600E+02
     -3.926  0.0000E+00  0.9600E+02
     -3.854  0.0000E+00  0.9600E+02
     -3.782  0.0000E+00  0.9600E+02
     -3.711  0.0000E+00  0.9600E+02
     -3.639  0.0000E+00  0.9600E+02
     -3.567  0.0000E+00  0.9600E+02
     -3.496  0.0000E+00  0.9600E+02
     -3.424  0.0000E+00  0.9600E+02
     -3.352  0.0000E+00  0.9600E+02
     -3.281  0.0000E+00  0.9600E+02
     -3.209  0.0000E+00  0.9600E+02
     -3.137  0.0000E+00  0.9600E+02
     -3.066  0.0000E+00  0.9600E+02
     -2.994  0.0000E+00  0.9600E+02
     -2.922  0.0000E+00  0.9600E+02
     -2.851  0.0000E+00  0.9600E+02
     -2.779  0.0000E+00  0.9600E+02
     -2.707  0.0000E+00  0.9600E+02
     -2.636  0.0000E+00  0.9600E+02
     -2.564  0.0000E+00  0.9600E+02
     -2.492  0.0000E+00  0.9600E+02
     -2.421  0.0000E+00  0.9600E+02
     -2.349  0.0000E+00  0.9600E+02
     -2.277  0.0000E+00  0.9600E+02
     -2.206  0.0000E+00  0.9600E+02
     -2.134  0.0000E+00  0.9600E+02
     -2.062  0.0000E+00  0.9600E+02
     -1.991  0.0000E+00  0.9600E+02
     -1.919  0.0000E+00  0.9600E+02
     -1.847  0.0000E+00  0.9600E+02
     -1.776  0.0000E+00  0.9600E+02
     -1.704  0.0000E+00  0.9600E+02
     -1.632  0.0000E+00  0.9600E+02
     -1.561  0.0000E+00  0.9600E+02
     -1.489  0.0000E+00  0.9600E+02
     -1.417  0.0000E+00  0.9600E+02
     -1.346  0.0000E+00  0.9600E+02
     -1.274  0.0000E+00  0.9600E+02
     -1.202  0.0000E+00  0.9600E+02
     -1.131  0.0000E+00  0.9600E+02
     -1.059  0.0000E+00  0.9600E+02
     -0.987  0.0000E+00  0.9600E+02
     -0.916  0.0000E+00  0.9600E+02
     -0.844  0.0000E+00  0.9600E+02
     -0.772  0.0000E+00  0.9600E+02
     -0.700  0.0000E+00  0.9600E+02
     -0.629  0.2130E-14  0.9600E+02
     -0.557  0.4140E-08  0.9600E+02
     -0.485  0.1405E-03  0.9600E+02
     -0.414  0.9655E-01  0.9601E+02
     -0.342  0.1803E+01  0.9614E+02
     -0.270  0.1856E+01  0.9627E+02
     -0.199  0.8567E+01  0.9688E+02
     -0.127  0.1537E+02  0.9798E+02
     -0.055  0.2457E+02  0.9975E+02
      0.016  0.5186E+02  0.1035E+03
      0.088  0.1041E+03  0.1109E+03
      0.160  0.1893E+03  0.1245E+03
      0.231  0.2070E+03  0.1393E+03
      0.303  0.2739E+03  0.1590E+03
      0.375  0.1916E+03  0.1727E+03
      0.446  0.1244E+03  0.1816E+03
      0.518  0.1410E+03  0.1917E+03
      0.590  0.1238E+03  0.2006E+03
      0.661  0.1685E+03  0.2127E+03
      0.733  0.2457E+03  0.2303E+03
      0.805  0.2292E+03  0.2467E+03
      0.876  0.2932E+03  0.2677E+03
      0.948  0.2826E+03  0.2880E+03
      1.020  0.1448E+03  0.2984E+03
      1.091  0.1858E+03  0.3117E+03
      1.163  0.2271E+03  0.3279E+03
      1.235  0.2306E+03  0.3445E+03
      1.306  0.2983E+03  0.3659E+03
      1.378  0.3084E+03  0.3880E+03
      1.450  0.3920E+03  0.4161E+03
      1.521  0.3548E+03  0.4415E+03
      1.593  0.3734E+03  0.4683E+03
      1.665  0.3653E+03  0.4944E+03
      1.736  0.3923E+03  0.5226E+03
      1.808  0.3714E+03  0.5492E+03
      1.880  0.3584E+03  0.5749E+03
      1.951  0.3899E+03  0.6028E+03
      2.023  0.4144E+03  0.6325E+03
      2.095  0.3772E+03  0.6595E+03
      2.166  0.3616E+03  0.6855E+03
      2.238  0.3753E+03  0.7124E+03
      2.310  0.3965E+03  0.7408E+03
      2.382  0.3369E+03  0.7649E+03
      2.453  0.2960E+03  0.7861E+03
      2.525  0.3404E+03  0.8105E+03
      2.597  0.3566E+03  0.8361E+03
      2.668  0.4090E+03  0.8654E+03
      2.740  0.3726E+03  0.8921E+03
      2.812  0.3818E+03  0.9195E+03
      2.883  0.4331E+03  0.9505E+03
      2.955  0.5015E+03  0.9865E+03
      3.027  0.4940E+03  0.1022E+04
      3.098  0.3637E+03  0.1048E+04
      3.170  0.2310E+03  0.1065E+04
      3.242  0.2046E+03  0.1079E+04
      3.313  0.1695E+03  0.1091E+04
      3.385  0.1363E+03  0.1101E+04
      3.457  0.1207E+03  0.1110E+04
      3.528  0.1587E+03  0.1121E+04
      3.600  0.1613E+03  0.1133E+04
      3.672  0.9972E+02  0.1140E+04
      3.743  0.9672E+02  0.1147E+04
      3.815  0.6373E+02  0.1151E+04
      3.887  0.7336E+02  0.1157E+04
      3.958  0.7241E+02  0.1162E+04
      4.030  0.6655E+02  0.1167E+04
      4.102  0.9196E+02  0.1173E+04
      4.173  0.1057E+03  0.1181E+04
      4.245  0.1123E+03  0.1189E+04
      4.317  0.7428E+02  0.1194E+04
      4.388  0.7312E+02  0.1199E+04
      4.460  0.6561E+02  0.1204E+04
      4.532  0.9298E+02  0.1211E+04
      4.603  0.9322E+02  0.1217E+04
      4.675  0.1031E+03  0.1225E+04
      4.747  0.1419E+03  0.1235E+04
      4.818  0.1354E+03  0.1245E+04
      4.890  0.7015E+02  0.1250E+04
      4.962  0.5390E+02  0.1254E+04
      5.033  0.5526E+02  0.1257E+04
      5.105  0.8970E+02  0.1264E+04
      5.177  0.1455E+03  0.1274E+04
      5.248  0.1053E+03  0.1282E+04
      5.320  0.6212E+02  0.1286E+04
      5.392  0.6085E+02  0.1291E+04
      5.463  0.6836E+02  0.1296E+04
      5.535  0.7321E+02  0.1301E+04
      5.607  0.7686E+02  0.1306E+04
      5.679  0.1135E+03  0.1315E+04
      5.750  0.1297E+03  0.1324E+04
      5.822  0.7125E+02  0.1329E+04
      5.894  0.6464E+02  0.1334E+04
      5.965  0.5718E+02  0.1338E+04
      6.037  0.2957E+02  0.1340E+04
      6.109  0.1870E+02  0.1341E+04
      6.180  0.2161E+02  0.1343E+04
      6.252  0.1657E+02  0.1344E+04
      6.324  0.8444E+01  0.1344E+04
      6.395  0.7967E+00  0.1344E+04
      6.467  0.1475E+00  0.1345E+04
      6.539  0.2002E+01  0.1345E+04
      6.610  0.1722E+01  0.1345E+04
      6.682  0.5918E+01  0.1345E+04
      6.754  0.2381E+02  0.1347E+04
      6.825  0.2544E+02  0.1349E+04
      6.897  0.1059E+02  0.1349E+04
      6.969  0.6352E+01  0.1350E+04
      7.040  0.8909E+01  0.1351E+04
      7.112  0.4816E+01  0.1351E+04
      7.184  0.2243E+02  0.1353E+04
      7.255  0.2410E+02  0.1354E+04
      7.327  0.2772E+02  0.1356E+04
      7.399  0.3222E+02  0.1359E+04
      7.470  0.3003E+02  0.1361E+04
      7.542  0.6369E+02  0.1365E+04
      7.614  0.6871E+02  0.1370E+04
      7.685  0.2640E+02  0.1372E+04
      7.757  0.5688E+02  0.1376E+04
      7.829  0.6975E+02  0.1381E+04
      7.900  0.7307E+02  0.1386E+04
      7.972  0.7621E+02  0.1392E+04
      8.044  0.6371E+02  0.1396E+04
      8.115  0.3360E+02  0.1399E+04
      8.187  0.1786E+02  0.1400E+04
      8.259  0.7875E+01  0.1401E+04
      8.330  0.1189E+02  0.1402E+04
      8.402  0.5210E+02  0.1405E+04
      8.474  0.3223E+02  0.1408E+04
      8.545  0.3465E+02  0.1410E+04
      8.617  0.9840E+02  0.1417E+04
      8.689  0.1017E+03  0.1424E+04
      8.761  0.5778E+02  0.1429E+04
      8.832  0.5019E+02  0.1432E+04
      8.904  0.3358E+02  0.1435E+04
      8.976  0.4587E+02  0.1438E+04
      9.047  0.2920E+02  0.1440E+04
      9.119  0.2177E+02  0.1441E+04
      9.191  0.9978E+01  0.1442E+04
      9.262  0.1825E+02  0.1444E+04
      9.334  0.5502E+02  0.1447E+04
      9.406  0.4910E+02  0.1451E+04
      9.477  0.5409E+02  0.1455E+04
      9.549  0.3779E+02  0.1458E+04
      9.621  0.5150E+02  0.1461E+04
      9.692  0.5023E+02  0.1465E+04
      9.764  0.4709E+02  0.1468E+04
      9.836  0.5431E+02  0.1472E+04
      9.907  0.7550E+02  0.1478E+04
      9.979  0.5716E+02  0.1482E+04
     10.051  0.1113E+03  0.1490E+04
     10.122  0.1159E+03  0.1498E+04
     10.194  0.3919E+02  0.1501E+04
     10.266  0.2989E+02  0.1503E+04
     10.337  0.4891E+02  0.1506E+04
     10.409  0.5893E+02  0.1511E+04
     10.481  0.9074E+02  0.1517E+04
     10.552  0.1120E+03  0.1525E+04
     10.624  0.1105E+03  0.1533E+04
     10.696  0.9237E+02  0.1540E+04
     10.767  0.7989E+02  0.1545E+04
     10.839  0.1080E+03  0.1553E+04
     10.911  0.8723E+02  0.1559E+04
     10.982  0.6397E+02  0.1564E+04
     11.054  0.3355E+02  0.1566E+04
     11.126  0.5778E+02  0.1571E+04
     11.197  0.4986E+02  0.1574E+04
     11.269  0.4670E+02  0.1577E+04
     11.341  0.8348E+02  0.1583E+04
     11.412  0.5154E+02  0.1587E+04
     11.484  0.5714E+02  0.1591E+04
     11.556  0.8893E+02  0.1598E+04
     11.627  0.6644E+02  0.1602E+04
     11.699  0.4392E+02  0.1606E+04
     11.771  0.1102E+02  0.1606E+04
     11.842  0.1537E+02  0.1607E+04
     11.914  0.3686E+02  0.1610E+04
     11.986  0.1955E+02  0.1611E+04
     12.058  0.2819E+01  0.1612E+04
     12.129  0.4473E+01  0.1612E+04
     12.201  0.5335E+00  0.1612E+04
     12.273  0.2088E-02  0.1612E+04
     12.344  0.1856E-06  0.1612E+04
     12.416  0.3214E-12  0.1612E+04
     12.488  0.0000E+00  0.1612E+04
     12.559  0.0000E+00  0.1612E+04
     12.631  0.0000E+00  0.1612E+04
     12.703  0.0000E+00  0.1612E+04
     12.774  0.0000E+00  0.1612E+04
     12.846  0.0000E+00  0.1612E+04
     12.918  0.0000E+00  0.1612E+04
     12.989  0.0000E+00  0.1612E+04
     13.061  0.0000E+00  0.1612E+04
