 192 192   0   0
  0.1931523E+02  0.1767436E-08  0.1377516E-08  0.1580299E-08  0.5000000E-15
  1.000000000000000E-004
  CAR 
 unknown system                          
     13.15650821     -8.37065704  301      6.46158587      1.00000000
     -8.371  0.0000E+00  0.0000E+00
     -8.299  0.0000E+00  0.0000E+00
     -8.227  0.0000E+00  0.0000E+00
     -8.155  0.0000E+00  0.0000E+00
     -8.084  0.0000E+00  0.0000E+00
     -8.012  0.0000E+00  0.0000E+00
     -7.940  0.0000E+00  0.0000E+00
     -7.868  0.0000E+00  0.0000E+00
     -7.797  0.0000E+00  0.0000E+00
     -7.725  0.0000E+00  0.0000E+00
     -7.653  0.2750E-12  0.1973E-13
     -7.581  0.1526E-06  0.1095E-07
     -7.510  0.1568E-02  0.1125E-03
     -7.438  0.3670E+00  0.2645E-01
     -7.366  0.5491E+01  0.4205E+00
     -7.294  0.2299E+02  0.2070E+01
     -7.223  0.4301E+02  0.5157E+01
     -7.151  0.5040E+02  0.8773E+01
     -7.079  0.7153E+02  0.1391E+02
     -7.007  0.1042E+03  0.2138E+02
     -6.936  0.1347E+03  0.3105E+02
     -6.864  0.2017E+03  0.4552E+02
     -6.792  0.2949E+03  0.6669E+02
     -6.720  0.3593E+03  0.9247E+02
     -6.648  0.2859E+03  0.1130E+03
     -6.577  0.1777E+03  0.1257E+03
     -6.505  0.3107E+02  0.1280E+03
     -6.433  0.4927E+00  0.1280E+03
     -6.361  0.2983E-03  0.1280E+03
     -6.290  0.4205E-08  0.1280E+03
     -6.218  0.3868E-15  0.1280E+03
     -6.146  0.0000E+00  0.1280E+03
     -6.074  0.0000E+00  0.1280E+03
     -6.003  0.0000E+00  0.1280E+03
     -5.931  0.0000E+00  0.1280E+03
     -5.859  0.0000E+00  0.1280E+03
     -5.787  0.0000E+00  0.1280E+03
     -5.716  0.0000E+00  0.1280E+03
     -5.644  0.0000E+00  0.1280E+03
     -5.572  0.0000E+00  0.1280E+03
     -5.500  0.0000E+00  0.1280E+03
     -5.429  0.0000E+00  0.1280E+03
     -5.357  0.0000E+00  0.1280E+03
     -5.285  0.0000E+00  0.1280E+03
     -5.213  0.0000E+00  0.1280E+03
     -5.142  0.0000E+00  0.1280E+03
     -5.070  0.0000E+00  0.1280E+03
     -4.998  0.0000E+00  0.1280E+03
     -4.926  0.0000E+00  0.1280E+03
     -4.855  0.0000E+00  0.1280E+03
     -4.783  0.0000E+00  0.1280E+03
     -4.711  0.0000E+00  0.1280E+03
     -4.639  0.0000E+00  0.1280E+03
     -4.568  0.0000E+00  0.1280E+03
     -4.496  0.0000E+00  0.1280E+03
     -4.424  0.0000E+00  0.1280E+03
     -4.352  0.0000E+00  0.1280E+03
     -4.280  0.0000E+00  0.1280E+03
     -4.209  0.0000E+00  0.1280E+03
     -4.137  0.0000E+00  0.1280E+03
     -4.065  0.0000E+00  0.1280E+03
     -3.993  0.0000E+00  0.1280E+03
     -3.922  0.0000E+00  0.1280E+03
     -3.850  0.0000E+00  0.1280E+03
     -3.778  0.0000E+00  0.1280E+03
     -3.706  0.0000E+00  0.1280E+03
     -3.635  0.0000E+00  0.1280E+03
     -3.563  0.0000E+00  0.1280E+03
     -3.491  0.0000E+00  0.1280E+03
     -3.419  0.0000E+00  0.1280E+03
     -3.348  0.0000E+00  0.1280E+03
     -3.276  0.0000E+00  0.1280E+03
     -3.204  0.0000E+00  0.1280E+03
     -3.132  0.0000E+00  0.1280E+03
     -3.061  0.0000E+00  0.1280E+03
     -2.989  0.0000E+00  0.1280E+03
     -2.917  0.0000E+00  0.1280E+03
     -2.845  0.0000E+00  0.1280E+03
     -2.774  0.0000E+00  0.1280E+03
     -2.702  0.0000E+00  0.1280E+03
     -2.630  0.0000E+00  0.1280E+03
     -2.558  0.0000E+00  0.1280E+03
     -2.487  0.0000E+00  0.1280E+03
     -2.415  0.0000E+00  0.1280E+03
     -2.343  0.0000E+00  0.1280E+03
     -2.271  0.0000E+00  0.1280E+03
     -2.200  0.0000E+00  0.1280E+03
     -2.128  0.0000E+00  0.1280E+03
     -2.056  0.0000E+00  0.1280E+03
     -1.984  0.0000E+00  0.1280E+03
     -1.913  0.0000E+00  0.1280E+03
     -1.841  0.0000E+00  0.1280E+03
     -1.769  0.0000E+00  0.1280E+03
     -1.697  0.0000E+00  0.1280E+03
     -1.625  0.0000E+00  0.1280E+03
     -1.554  0.0000E+00  0.1280E+03
     -1.482  0.0000E+00  0.1280E+03
     -1.410  0.0000E+00  0.1280E+03
     -1.338  0.0000E+00  0.1280E+03
     -1.267  0.0000E+00  0.1280E+03
     -1.195  0.0000E+00  0.1280E+03
     -1.123  0.0000E+00  0.1280E+03
     -1.051  0.0000E+00  0.1280E+03
     -0.980  0.0000E+00  0.1280E+03
     -0.908  0.0000E+00  0.1280E+03
     -0.836  0.0000E+00  0.1280E+03
     -0.764  0.0000E+00  0.1280E+03
     -0.693  0.0000E+00  0.1280E+03
     -0.621  0.0000E+00  0.1280E+03
     -0.549  0.0000E+00  0.1280E+03
     -0.477  0.6982E-13  0.1280E+03
     -0.406  0.6625E-07  0.1280E+03
     -0.334  0.1148E-02  0.1280E+03
     -0.262  0.4204E+00  0.1280E+03
     -0.190  0.5704E+01  0.1284E+03
     -0.119  0.1397E+02  0.1294E+03
     -0.047  0.4601E+02  0.1327E+03
      0.025  0.5360E+02  0.1366E+03
      0.097  0.6887E+02  0.1415E+03
      0.168  0.2145E+03  0.1569E+03
      0.240  0.2742E+03  0.1766E+03
      0.312  0.2131E+03  0.1919E+03
      0.384  0.2370E+03  0.2089E+03
      0.455  0.2913E+03  0.2298E+03
      0.527  0.2143E+03  0.2452E+03
      0.599  0.1976E+03  0.2594E+03
      0.671  0.2092E+03  0.2744E+03
      0.743  0.2225E+03  0.2903E+03
      0.814  0.2922E+03  0.3113E+03
      0.886  0.2951E+03  0.3325E+03
      0.958  0.2622E+03  0.3513E+03
      1.030  0.3186E+03  0.3741E+03
      1.101  0.3130E+03  0.3966E+03
      1.173  0.2849E+03  0.4170E+03
      1.245  0.2378E+03  0.4341E+03
      1.317  0.2502E+03  0.4521E+03
      1.388  0.3278E+03  0.4756E+03
      1.460  0.4215E+03  0.5058E+03
      1.532  0.4095E+03  0.5352E+03
      1.604  0.4445E+03  0.5671E+03
      1.675  0.5176E+03  0.6043E+03
      1.747  0.5252E+03  0.6419E+03
      1.819  0.5132E+03  0.6788E+03
      1.891  0.3905E+03  0.7068E+03
      1.962  0.4485E+03  0.7390E+03
      2.034  0.4438E+03  0.7708E+03
      2.106  0.4748E+03  0.8049E+03
      2.178  0.5336E+03  0.8432E+03
      2.249  0.5773E+03  0.8846E+03
      2.321  0.6070E+03  0.9282E+03
      2.393  0.6704E+03  0.9763E+03
      2.465  0.6132E+03  0.1020E+04
      2.536  0.5513E+03  0.1060E+04
      2.608  0.5593E+03  0.1100E+04
      2.680  0.5721E+03  0.1141E+04
      2.752  0.6388E+03  0.1187E+04
      2.823  0.6960E+03  0.1237E+04
      2.895  0.5601E+03  0.1277E+04
      2.967  0.4696E+03  0.1311E+04
      3.039  0.4626E+03  0.1344E+04
      3.110  0.4530E+03  0.1376E+04
      3.182  0.4276E+03  0.1407E+04
      3.254  0.3596E+03  0.1433E+04
      3.326  0.2293E+03  0.1449E+04
      3.398  0.1854E+03  0.1463E+04
      3.469  0.1860E+03  0.1476E+04
      3.541  0.1905E+03  0.1490E+04
      3.613  0.2049E+03  0.1504E+04
      3.685  0.1798E+03  0.1517E+04
      3.756  0.1212E+03  0.1526E+04
      3.828  0.9440E+02  0.1533E+04
      3.900  0.1010E+03  0.1540E+04
      3.972  0.1209E+03  0.1549E+04
      4.043  0.9770E+02  0.1556E+04
      4.115  0.1022E+03  0.1563E+04
      4.187  0.1566E+03  0.1574E+04
      4.259  0.9652E+02  0.1581E+04
      4.330  0.8746E+02  0.1587E+04
      4.402  0.9349E+02  0.1594E+04
      4.474  0.9222E+02  0.1601E+04
      4.546  0.1498E+03  0.1611E+04
      4.617  0.1155E+03  0.1620E+04
      4.689  0.9296E+02  0.1626E+04
      4.761  0.1128E+03  0.1635E+04
      4.833  0.8528E+02  0.1641E+04
      4.904  0.1029E+03  0.1648E+04
      4.976  0.1705E+03  0.1660E+04
      5.048  0.1288E+03  0.1670E+04
      5.120  0.6922E+02  0.1674E+04
      5.191  0.9379E+02  0.1681E+04
      5.263  0.7418E+02  0.1687E+04
      5.335  0.1243E+03  0.1695E+04
      5.407  0.1440E+03  0.1706E+04
      5.478  0.1183E+03  0.1714E+04
      5.550  0.7212E+02  0.1719E+04
      5.622  0.9442E+02  0.1726E+04
      5.694  0.1419E+03  0.1736E+04
      5.766  0.1554E+03  0.1748E+04
      5.837  0.1063E+03  0.1755E+04
      5.909  0.1208E+03  0.1764E+04
      5.981  0.1160E+03  0.1772E+04
      6.053  0.8562E+02  0.1778E+04
      6.124  0.6167E+02  0.1783E+04
      6.196  0.4232E+02  0.1786E+04
      6.268  0.3710E+02  0.1788E+04
      6.340  0.3031E+02  0.1791E+04
      6.411  0.1341E+02  0.1792E+04
      6.483  0.7404E+01  0.1792E+04
      6.555  0.2388E+01  0.1792E+04
      6.627  0.4565E+01  0.1793E+04
      6.698  0.2786E+01  0.1793E+04
      6.770  0.2355E+01  0.1793E+04
      6.842  0.1738E+01  0.1793E+04
      6.914  0.1150E+02  0.1794E+04
      6.985  0.1503E+02  0.1795E+04
      7.057  0.1027E+02  0.1796E+04
      7.129  0.1071E+02  0.1797E+04
      7.201  0.2579E+02  0.1798E+04
      7.272  0.3089E+02  0.1801E+04
      7.344  0.1857E+02  0.1802E+04
      7.416  0.3215E+02  0.1804E+04
      7.488  0.3521E+02  0.1807E+04
      7.559  0.3740E+02  0.1809E+04
      7.631  0.5780E+02  0.1814E+04
      7.703  0.6718E+02  0.1818E+04
      7.775  0.7303E+02  0.1824E+04
      7.846  0.7313E+02  0.1829E+04
      7.918  0.6230E+02  0.1833E+04
      7.990  0.5795E+02  0.1838E+04
      8.062  0.7814E+02  0.1843E+04
      8.134  0.8134E+02  0.1849E+04
      8.205  0.8330E+02  0.1855E+04
      8.277  0.7293E+02  0.1860E+04
      8.349  0.6661E+02  0.1865E+04
      8.421  0.7416E+02  0.1870E+04
      8.492  0.8911E+02  0.1877E+04
      8.564  0.7454E+02  0.1882E+04
      8.636  0.5789E+02  0.1886E+04
      8.708  0.8144E+02  0.1892E+04
      8.779  0.8429E+02  0.1898E+04
      8.851  0.5688E+02  0.1902E+04
      8.923  0.4629E+02  0.1905E+04
      8.995  0.3995E+02  0.1908E+04
      9.066  0.5357E+02  0.1912E+04
      9.138  0.8593E+02  0.1918E+04
      9.210  0.6345E+02  0.1923E+04
      9.282  0.4921E+02  0.1926E+04
      9.353  0.5735E+02  0.1931E+04
      9.425  0.6778E+02  0.1935E+04
      9.497  0.6297E+02  0.1940E+04
      9.569  0.4073E+02  0.1943E+04
      9.640  0.7179E+02  0.1948E+04
      9.712  0.1047E+03  0.1956E+04
      9.784  0.1067E+03  0.1963E+04
      9.856  0.8779E+02  0.1969E+04
      9.927  0.7647E+02  0.1975E+04
      9.999  0.5737E+02  0.1979E+04
     10.071  0.8489E+02  0.1985E+04
     10.143  0.8777E+02  0.1991E+04
     10.214  0.1009E+03  0.1999E+04
     10.286  0.1088E+03  0.2007E+04
     10.358  0.1133E+03  0.2015E+04
     10.430  0.1100E+03  0.2023E+04
     10.501  0.9294E+02  0.2029E+04
     10.573  0.7314E+02  0.2034E+04
     10.645  0.7626E+02  0.2040E+04
     10.717  0.6907E+02  0.2045E+04
     10.789  0.6828E+02  0.2050E+04
     10.860  0.7249E+02  0.2055E+04
     10.932  0.7151E+02  0.2060E+04
     11.004  0.5571E+02  0.2064E+04
     11.076  0.9436E+02  0.2071E+04
     11.147  0.1041E+03  0.2078E+04
     11.219  0.8088E+02  0.2084E+04
     11.291  0.9471E+02  0.2091E+04
     11.363  0.8183E+02  0.2097E+04
     11.434  0.1077E+03  0.2105E+04
     11.506  0.1295E+03  0.2114E+04
     11.578  0.1183E+03  0.2122E+04
     11.650  0.1044E+03  0.2130E+04
     11.721  0.6258E+02  0.2134E+04
     11.793  0.9059E+02  0.2141E+04
     11.865  0.4885E+02  0.2144E+04
     11.937  0.2694E+02  0.2146E+04
     12.008  0.1362E+02  0.2147E+04
     12.080  0.1942E+02  0.2149E+04
     12.152  0.1299E+02  0.2150E+04
     12.224  0.5719E+01  0.2150E+04
     12.295  0.4725E+00  0.2150E+04
     12.367  0.1714E-02  0.2150E+04
     12.439  0.1563E-06  0.2150E+04
     12.511  0.2766E-12  0.2150E+04
     12.582  0.0000E+00  0.2150E+04
     12.654  0.0000E+00  0.2150E+04
     12.726  0.0000E+00  0.2150E+04
     12.798  0.0000E+00  0.2150E+04
     12.869  0.0000E+00  0.2150E+04
     12.941  0.0000E+00  0.2150E+04
     13.013  0.0000E+00  0.2150E+04
     13.085  0.0000E+00  0.2150E+04
     13.157  0.0000E+00  0.2150E+04
