 192 192   0   0
  0.1931523E+02  0.1767436E-08  0.1377516E-08  0.1580299E-08  0.5000000E-15
  1.000000000000000E-004
  CAR 
 unknown system                          
     13.17763000     -8.37162946  301      6.46159969      1.00000000
     -8.372  0.0000E+00  0.0000E+00
     -8.300  0.0000E+00  0.0000E+00
     -8.228  0.0000E+00  0.0000E+00
     -8.156  0.0000E+00  0.0000E+00
     -8.084  0.0000E+00  0.0000E+00
     -8.012  0.0000E+00  0.0000E+00
     -7.941  0.0000E+00  0.0000E+00
     -7.869  0.0000E+00  0.0000E+00
     -7.797  0.0000E+00  0.0000E+00
     -7.725  0.0000E+00  0.0000E+00
     -7.653  0.2595E-12  0.1864E-13
     -7.581  0.1479E-06  0.1062E-07
     -7.510  0.1547E-02  0.1111E-03
     -7.438  0.3657E+00  0.2638E-01
     -7.366  0.5491E+01  0.4208E+00
     -7.294  0.2301E+02  0.2074E+01
     -7.222  0.4304E+02  0.5165E+01
     -7.151  0.5043E+02  0.8787E+01
     -7.079  0.7165E+02  0.1393E+02
     -7.007  0.1043E+03  0.2143E+02
     -6.935  0.1350E+03  0.3112E+02
     -6.863  0.2023E+03  0.4565E+02
     -6.791  0.2959E+03  0.6691E+02
     -6.720  0.3590E+03  0.9269E+02
     -6.648  0.2850E+03  0.1132E+03
     -6.576  0.1760E+03  0.1258E+03
     -6.504  0.3007E+02  0.1280E+03
     -6.432  0.4590E+00  0.1280E+03
     -6.360  0.2635E-03  0.1280E+03
     -6.289  0.3480E-08  0.1280E+03
     -6.217  0.0000E+00  0.1280E+03
     -6.145  0.0000E+00  0.1280E+03
     -6.073  0.0000E+00  0.1280E+03
     -6.001  0.0000E+00  0.1280E+03
     -5.929  0.0000E+00  0.1280E+03
     -5.858  0.0000E+00  0.1280E+03
     -5.786  0.0000E+00  0.1280E+03
     -5.714  0.0000E+00  0.1280E+03
     -5.642  0.0000E+00  0.1280E+03
     -5.570  0.0000E+00  0.1280E+03
     -5.498  0.0000E+00  0.1280E+03
     -5.427  0.0000E+00  0.1280E+03
     -5.355  0.0000E+00  0.1280E+03
     -5.283  0.0000E+00  0.1280E+03
     -5.211  0.0000E+00  0.1280E+03
     -5.139  0.0000E+00  0.1280E+03
     -5.067  0.0000E+00  0.1280E+03
     -4.996  0.0000E+00  0.1280E+03
     -4.924  0.0000E+00  0.1280E+03
     -4.852  0.0000E+00  0.1280E+03
     -4.780  0.0000E+00  0.1280E+03
     -4.708  0.0000E+00  0.1280E+03
     -4.636  0.0000E+00  0.1280E+03
     -4.565  0.0000E+00  0.1280E+03
     -4.493  0.0000E+00  0.1280E+03
     -4.421  0.0000E+00  0.1280E+03
     -4.349  0.0000E+00  0.1280E+03
     -4.277  0.0000E+00  0.1280E+03
     -4.205  0.0000E+00  0.1280E+03
     -4.134  0.0000E+00  0.1280E+03
     -4.062  0.0000E+00  0.1280E+03
     -3.990  0.0000E+00  0.1280E+03
     -3.918  0.0000E+00  0.1280E+03
     -3.846  0.0000E+00  0.1280E+03
     -3.774  0.0000E+00  0.1280E+03
     -3.703  0.0000E+00  0.1280E+03
     -3.631  0.0000E+00  0.1280E+03
     -3.559  0.0000E+00  0.1280E+03
     -3.487  0.0000E+00  0.1280E+03
     -3.415  0.0000E+00  0.1280E+03
     -3.343  0.0000E+00  0.1280E+03
     -3.272  0.0000E+00  0.1280E+03
     -3.200  0.0000E+00  0.1280E+03
     -3.128  0.0000E+00  0.1280E+03
     -3.056  0.0000E+00  0.1280E+03
     -2.984  0.0000E+00  0.1280E+03
     -2.912  0.0000E+00  0.1280E+03
     -2.841  0.0000E+00  0.1280E+03
     -2.769  0.0000E+00  0.1280E+03
     -2.697  0.0000E+00  0.1280E+03
     -2.625  0.0000E+00  0.1280E+03
     -2.553  0.0000E+00  0.1280E+03
     -2.481  0.0000E+00  0.1280E+03
     -2.410  0.0000E+00  0.1280E+03
     -2.338  0.0000E+00  0.1280E+03
     -2.266  0.0000E+00  0.1280E+03
     -2.194  0.0000E+00  0.1280E+03
     -2.122  0.0000E+00  0.1280E+03
     -2.051  0.0000E+00  0.1280E+03
     -1.979  0.0000E+00  0.1280E+03
     -1.907  0.0000E+00  0.1280E+03
     -1.835  0.0000E+00  0.1280E+03
     -1.763  0.0000E+00  0.1280E+03
     -1.691  0.0000E+00  0.1280E+03
     -1.620  0.0000E+00  0.1280E+03
     -1.548  0.0000E+00  0.1280E+03
     -1.476  0.0000E+00  0.1280E+03
     -1.404  0.0000E+00  0.1280E+03
     -1.332  0.0000E+00  0.1280E+03
     -1.260  0.0000E+00  0.1280E+03
     -1.189  0.0000E+00  0.1280E+03
     -1.117  0.0000E+00  0.1280E+03
     -1.045  0.0000E+00  0.1280E+03
     -0.973  0.0000E+00  0.1280E+03
     -0.901  0.0000E+00  0.1280E+03
     -0.829  0.0000E+00  0.1280E+03
     -0.758  0.0000E+00  0.1280E+03
     -0.686  0.0000E+00  0.1280E+03
     -0.614  0.0000E+00  0.1280E+03
     -0.542  0.0000E+00  0.1280E+03
     -0.470  0.3282E-12  0.1280E+03
     -0.398  0.2110E-06  0.1280E+03
     -0.327  0.2479E-02  0.1280E+03
     -0.255  0.6274E+00  0.1280E+03
     -0.183  0.6524E+01  0.1285E+03
     -0.111  0.1544E+02  0.1296E+03
     -0.039  0.5058E+02  0.1333E+03
      0.033  0.5037E+02  0.1369E+03
      0.104  0.7957E+02  0.1426E+03
      0.176  0.2308E+03  0.1592E+03
      0.248  0.2678E+03  0.1784E+03
      0.320  0.2110E+03  0.1936E+03
      0.392  0.2449E+03  0.2112E+03
      0.464  0.2888E+03  0.2319E+03
      0.535  0.2054E+03  0.2467E+03
      0.607  0.2016E+03  0.2611E+03
      0.679  0.2088E+03  0.2761E+03
      0.751  0.2265E+03  0.2924E+03
      0.823  0.3006E+03  0.3140E+03
      0.895  0.2872E+03  0.3346E+03
      0.966  0.2670E+03  0.3538E+03
      1.038  0.3229E+03  0.3770E+03
      1.110  0.3083E+03  0.3991E+03
      1.182  0.2809E+03  0.4193E+03
      1.254  0.2351E+03  0.4362E+03
      1.326  0.2558E+03  0.4546E+03
      1.397  0.3414E+03  0.4791E+03
      1.469  0.4252E+03  0.5097E+03
      1.541  0.4105E+03  0.5391E+03
      1.613  0.4519E+03  0.5716E+03
      1.685  0.5252E+03  0.6093E+03
      1.757  0.5213E+03  0.6468E+03
      1.828  0.5072E+03  0.6832E+03
      1.900  0.3773E+03  0.7103E+03
      1.972  0.4649E+03  0.7437E+03
      2.044  0.4359E+03  0.7750E+03
      2.116  0.4849E+03  0.8098E+03
      2.188  0.5442E+03  0.8489E+03
      2.259  0.5741E+03  0.8902E+03
      2.331  0.6221E+03  0.9349E+03
      2.403  0.6672E+03  0.9828E+03
      2.475  0.6015E+03  0.1026E+04
      2.547  0.5492E+03  0.1065E+04
      2.618  0.5610E+03  0.1106E+04
      2.690  0.5785E+03  0.1147E+04
      2.762  0.6523E+03  0.1194E+04
      2.834  0.6867E+03  0.1243E+04
      2.906  0.5383E+03  0.1282E+04
      2.978  0.4647E+03  0.1316E+04
      3.049  0.4665E+03  0.1349E+04
      3.121  0.4430E+03  0.1381E+04
      3.193  0.4305E+03  0.1412E+04
      3.265  0.3316E+03  0.1436E+04
      3.337  0.2235E+03  0.1452E+04
      3.409  0.1794E+03  0.1465E+04
      3.480  0.1892E+03  0.1478E+04
      3.552  0.1917E+03  0.1492E+04
      3.624  0.2041E+03  0.1507E+04
      3.696  0.1725E+03  0.1519E+04
      3.768  0.1128E+03  0.1527E+04
      3.840  0.9334E+02  0.1534E+04
      3.911  0.1059E+03  0.1541E+04
      3.983  0.1188E+03  0.1550E+04
      4.055  0.9508E+02  0.1557E+04
      4.127  0.1108E+03  0.1565E+04
      4.199  0.1541E+03  0.1576E+04
      4.271  0.8835E+02  0.1582E+04
      4.342  0.8931E+02  0.1589E+04
      4.414  0.9367E+02  0.1595E+04
      4.486  0.9684E+02  0.1602E+04
      4.558  0.1553E+03  0.1613E+04
      4.630  0.1047E+03  0.1621E+04
      4.702  0.9596E+02  0.1628E+04
      4.773  0.1118E+03  0.1636E+04
      4.845  0.8224E+02  0.1642E+04
      4.917  0.1149E+03  0.1650E+04
      4.989  0.1728E+03  0.1662E+04
      5.061  0.1127E+03  0.1670E+04
      5.133  0.7203E+02  0.1676E+04
      5.204  0.9068E+02  0.1682E+04
      5.276  0.7978E+02  0.1688E+04
      5.348  0.1310E+03  0.1697E+04
      5.420  0.1443E+03  0.1708E+04
      5.492  0.1077E+03  0.1715E+04
      5.564  0.6938E+02  0.1720E+04
      5.635  0.1057E+03  0.1728E+04
      5.707  0.1480E+03  0.1739E+04
      5.779  0.1478E+03  0.1749E+04
      5.851  0.1036E+03  0.1757E+04
      5.923  0.1247E+03  0.1766E+04
      5.995  0.1081E+03  0.1773E+04
      6.066  0.8385E+02  0.1779E+04
      6.138  0.5480E+02  0.1783E+04
      6.210  0.4233E+02  0.1786E+04
      6.282  0.3456E+02  0.1789E+04
      6.354  0.2830E+02  0.1791E+04
      6.426  0.1132E+02  0.1792E+04
      6.497  0.6228E+01  0.1792E+04
      6.569  0.2212E+01  0.1792E+04
      6.641  0.4861E+01  0.1793E+04
      6.713  0.2452E+01  0.1793E+04
      6.785  0.2024E+01  0.1793E+04
      6.857  0.2824E+01  0.1793E+04
      6.928  0.1333E+02  0.1794E+04
      7.000  0.1469E+02  0.1795E+04
      7.072  0.8898E+01  0.1796E+04
      7.144  0.1330E+02  0.1797E+04
      7.216  0.2866E+02  0.1799E+04
      7.287  0.2810E+02  0.1801E+04
      7.359  0.2025E+02  0.1802E+04
      7.431  0.3311E+02  0.1805E+04
      7.503  0.3611E+02  0.1807E+04
      7.575  0.3943E+02  0.1810E+04
      7.647  0.6301E+02  0.1815E+04
      7.718  0.6632E+02  0.1819E+04
      7.790  0.7602E+02  0.1825E+04
      7.862  0.6897E+02  0.1830E+04
      7.934  0.6228E+02  0.1834E+04
      8.006  0.5962E+02  0.1839E+04
      8.078  0.8130E+02  0.1844E+04
      8.149  0.8094E+02  0.1850E+04
      8.221  0.8367E+02  0.1856E+04
      8.293  0.6800E+02  0.1861E+04
      8.365  0.6936E+02  0.1866E+04
      8.437  0.7617E+02  0.1872E+04
      8.509  0.9205E+02  0.1878E+04
      8.580  0.6446E+02  0.1883E+04
      8.652  0.6422E+02  0.1887E+04
      8.724  0.8253E+02  0.1893E+04
      8.796  0.8231E+02  0.1899E+04
      8.868  0.4906E+02  0.1903E+04
      8.940  0.4735E+02  0.1906E+04
      9.011  0.3904E+02  0.1909E+04
      9.083  0.6218E+02  0.1913E+04
      9.155  0.8641E+02  0.1920E+04
      9.227  0.5633E+02  0.1924E+04
      9.299  0.4884E+02  0.1927E+04
      9.371  0.6288E+02  0.1932E+04
      9.442  0.6573E+02  0.1936E+04
      9.514  0.5940E+02  0.1941E+04
      9.586  0.4275E+02  0.1944E+04
      9.658  0.7913E+02  0.1950E+04
      9.730  0.1137E+03  0.1958E+04
      9.802  0.9891E+02  0.1965E+04
      9.873  0.8335E+02  0.1971E+04
      9.945  0.7545E+02  0.1976E+04
     10.017  0.5658E+02  0.1980E+04
     10.089  0.9223E+02  0.1987E+04
     10.161  0.8602E+02  0.1993E+04
     10.233  0.1062E+03  0.2001E+04
     10.304  0.1106E+03  0.2009E+04
     10.376  0.1110E+03  0.2017E+04
     10.448  0.1072E+03  0.2024E+04
     10.520  0.8972E+02  0.2031E+04
     10.592  0.6881E+02  0.2036E+04
     10.664  0.7857E+02  0.2041E+04
     10.735  0.6505E+02  0.2046E+04
     10.807  0.7102E+02  0.2051E+04
     10.879  0.7437E+02  0.2056E+04
     10.951  0.6436E+02  0.2061E+04
     11.023  0.6174E+02  0.2066E+04
     11.095  0.1061E+03  0.2073E+04
     11.166  0.9208E+02  0.2080E+04
     11.238  0.8849E+02  0.2086E+04
     11.310  0.8804E+02  0.2092E+04
     11.382  0.8599E+02  0.2099E+04
     11.454  0.1188E+03  0.2107E+04
     11.526  0.1250E+03  0.2116E+04
     11.597  0.1174E+03  0.2125E+04
     11.669  0.9192E+02  0.2131E+04
     11.741  0.6541E+02  0.2136E+04
     11.813  0.8848E+02  0.2142E+04
     11.885  0.3478E+02  0.2145E+04
     11.957  0.2603E+02  0.2147E+04
     12.028  0.1215E+02  0.2147E+04
     12.100  0.2011E+02  0.2149E+04
     12.172  0.1026E+02  0.2150E+04
     12.244  0.4626E+01  0.2150E+04
     12.316  0.3933E+00  0.2150E+04
     12.387  0.1577E-02  0.2150E+04
     12.459  0.1484E-06  0.2150E+04
     12.531  0.2597E-12  0.2150E+04
     12.603  0.0000E+00  0.2150E+04
     12.675  0.0000E+00  0.2150E+04
     12.747  0.0000E+00  0.2150E+04
     12.818  0.0000E+00  0.2150E+04
     12.890  0.0000E+00  0.2150E+04
     12.962  0.0000E+00  0.2150E+04
     13.034  0.0000E+00  0.2150E+04
     13.106  0.0000E+00  0.2150E+04
     13.178  0.0000E+00  0.2150E+04
