 144 144   0   0
  0.1948916E+02  0.1401040E-08  0.1376691E-08  0.1455019E-08  0.5000000E-15
  1.000000000000000E-004
  CAR 
 unknown system                          
     13.05602362     -8.44101744  301      6.26439995      1.00000000
     -8.441  0.0000E+00  0.0000E+00
     -8.369  0.0000E+00  0.0000E+00
     -8.298  0.0000E+00  0.0000E+00
     -8.226  0.0000E+00  0.0000E+00
     -8.154  0.0000E+00  0.0000E+00
     -8.083  0.0000E+00  0.0000E+00
     -8.011  0.0000E+00  0.0000E+00
     -7.939  0.0000E+00  0.0000E+00
     -7.868  0.0000E+00  0.0000E+00
     -7.796  0.0000E+00  0.0000E+00
     -7.724  0.2975E-12  0.2132E-13
     -7.653  0.1592E-06  0.1141E-07
     -7.581  0.1591E-02  0.1140E-03
     -7.509  0.3520E+00  0.2534E-01
     -7.438  0.4313E+01  0.3344E+00
     -7.366  0.1910E+02  0.1703E+01
     -7.295  0.3786E+02  0.4416E+01
     -7.223  0.3949E+02  0.7246E+01
     -7.151  0.6432E+02  0.1186E+02
     -7.080  0.1004E+03  0.1905E+02
     -7.008  0.1264E+03  0.2811E+02
     -6.936  0.2083E+03  0.4303E+02
     -6.865  0.2226E+03  0.5898E+02
     -6.793  0.2575E+03  0.7743E+02
     -6.721  0.2073E+03  0.9228E+02
     -6.650  0.4960E+02  0.9584E+02
     -6.578  0.2233E+01  0.9600E+02
     -6.506  0.8076E-02  0.9600E+02
     -6.435  0.1023E-05  0.9600E+02
     -6.363  0.3044E-11  0.9600E+02
     -6.291  0.0000E+00  0.9600E+02
     -6.220  0.0000E+00  0.9600E+02
     -6.148  0.0000E+00  0.9600E+02
     -6.076  0.0000E+00  0.9600E+02
     -6.005  0.0000E+00  0.9600E+02
     -5.933  0.0000E+00  0.9600E+02
     -5.861  0.0000E+00  0.9600E+02
     -5.790  0.0000E+00  0.9600E+02
     -5.718  0.0000E+00  0.9600E+02
     -5.646  0.0000E+00  0.9600E+02
     -5.575  0.0000E+00  0.9600E+02
     -5.503  0.0000E+00  0.9600E+02
     -5.431  0.0000E+00  0.9600E+02
     -5.360  0.0000E+00  0.9600E+02
     -5.288  0.0000E+00  0.9600E+02
     -5.216  0.0000E+00  0.9600E+02
     -5.145  0.0000E+00  0.9600E+02
     -5.073  0.0000E+00  0.9600E+02
     -5.001  0.0000E+00  0.9600E+02
     -4.930  0.0000E+00  0.9600E+02
     -4.858  0.0000E+00  0.9600E+02
     -4.787  0.0000E+00  0.9600E+02
     -4.715  0.0000E+00  0.9600E+02
     -4.643  0.0000E+00  0.9600E+02
     -4.572  0.0000E+00  0.9600E+02
     -4.500  0.0000E+00  0.9600E+02
     -4.428  0.0000E+00  0.9600E+02
     -4.357  0.0000E+00  0.9600E+02
     -4.285  0.0000E+00  0.9600E+02
     -4.213  0.0000E+00  0.9600E+02
     -4.142  0.0000E+00  0.9600E+02
     -4.070  0.0000E+00  0.9600E+02
     -3.998  0.0000E+00  0.9600E+02
     -3.927  0.0000E+00  0.9600E+02
     -3.855  0.0000E+00  0.9600E+02
     -3.783  0.0000E+00  0.9600E+02
     -3.712  0.0000E+00  0.9600E+02
     -3.640  0.0000E+00  0.9600E+02
     -3.568  0.0000E+00  0.9600E+02
     -3.497  0.0000E+00  0.9600E+02
     -3.425  0.0000E+00  0.9600E+02
     -3.353  0.0000E+00  0.9600E+02
     -3.282  0.0000E+00  0.9600E+02
     -3.210  0.0000E+00  0.9600E+02
     -3.138  0.0000E+00  0.9600E+02
     -3.067  0.0000E+00  0.9600E+02
     -2.995  0.0000E+00  0.9600E+02
     -2.923  0.0000E+00  0.9600E+02
     -2.852  0.0000E+00  0.9600E+02
     -2.780  0.0000E+00  0.9600E+02
     -2.708  0.0000E+00  0.9600E+02
     -2.637  0.0000E+00  0.9600E+02
     -2.565  0.0000E+00  0.9600E+02
     -2.494  0.0000E+00  0.9600E+02
     -2.422  0.0000E+00  0.9600E+02
     -2.350  0.0000E+00  0.9600E+02
     -2.279  0.0000E+00  0.9600E+02
     -2.207  0.0000E+00  0.9600E+02
     -2.135  0.0000E+00  0.9600E+02
     -2.064  0.0000E+00  0.9600E+02
     -1.992  0.0000E+00  0.9600E+02
     -1.920  0.0000E+00  0.9600E+02
     -1.849  0.0000E+00  0.9600E+02
     -1.777  0.0000E+00  0.9600E+02
     -1.705  0.0000E+00  0.9600E+02
     -1.634  0.0000E+00  0.9600E+02
     -1.562  0.0000E+00  0.9600E+02
     -1.490  0.0000E+00  0.9600E+02
     -1.419  0.0000E+00  0.9600E+02
     -1.347  0.0000E+00  0.9600E+02
     -1.275  0.0000E+00  0.9600E+02
     -1.204  0.0000E+00  0.9600E+02
     -1.132  0.0000E+00  0.9600E+02
     -1.060  0.0000E+00  0.9600E+02
     -0.989  0.0000E+00  0.9600E+02
     -0.917  0.0000E+00  0.9600E+02
     -0.845  0.0000E+00  0.9600E+02
     -0.774  0.0000E+00  0.9600E+02
     -0.702  0.0000E+00  0.9600E+02
     -0.630  0.1549E-14  0.9600E+02
     -0.559  0.3078E-08  0.9600E+02
     -0.487  0.1146E-03  0.9600E+02
     -0.415  0.8617E-01  0.9601E+02
     -0.344  0.1745E+01  0.9613E+02
     -0.272  0.1881E+01  0.9627E+02
     -0.200  0.8215E+01  0.9685E+02
     -0.129  0.1539E+02  0.9796E+02
     -0.057  0.2407E+02  0.9968E+02
      0.014  0.5106E+02  0.1033E+03
      0.086  0.1020E+03  0.1106E+03
      0.158  0.1885E+03  0.1242E+03
      0.229  0.2053E+03  0.1389E+03
      0.301  0.2743E+03  0.1585E+03
      0.373  0.1939E+03  0.1724E+03
      0.444  0.1251E+03  0.1814E+03
      0.516  0.1408E+03  0.1915E+03
      0.588  0.1242E+03  0.2004E+03
      0.659  0.1659E+03  0.2123E+03
      0.731  0.2451E+03  0.2298E+03
      0.803  0.2292E+03  0.2462E+03
      0.874  0.2913E+03  0.2671E+03
      0.946  0.2854E+03  0.2876E+03
      1.018  0.1468E+03  0.2981E+03
      1.089  0.1836E+03  0.3112E+03
      1.161  0.2267E+03  0.3275E+03
      1.233  0.2294E+03  0.3439E+03
      1.304  0.2980E+03  0.3653E+03
      1.376  0.3065E+03  0.3872E+03
      1.448  0.3913E+03  0.4153E+03
      1.519  0.3555E+03  0.4408E+03
      1.591  0.3728E+03  0.4675E+03
      1.663  0.3654E+03  0.4937E+03
      1.734  0.3914E+03  0.5217E+03
      1.806  0.3724E+03  0.5484E+03
      1.878  0.3581E+03  0.5740E+03
      1.949  0.3888E+03  0.6019E+03
      2.021  0.4146E+03  0.6316E+03
      2.093  0.3786E+03  0.6587E+03
      2.164  0.3611E+03  0.6846E+03
      2.236  0.3750E+03  0.7115E+03
      2.308  0.3973E+03  0.7400E+03
      2.379  0.3382E+03  0.7642E+03
      2.451  0.2964E+03  0.7854E+03
      2.522  0.3391E+03  0.8097E+03
      2.594  0.3550E+03  0.8352E+03
      2.666  0.4086E+03  0.8645E+03
      2.737  0.3743E+03  0.8913E+03
      2.809  0.3796E+03  0.9185E+03
      2.881  0.4318E+03  0.9494E+03
      2.952  0.4991E+03  0.9852E+03
      3.024  0.4968E+03  0.1021E+04
      3.096  0.3692E+03  0.1047E+04
      3.167  0.2337E+03  0.1064E+04
      3.239  0.2052E+03  0.1079E+04
      3.311  0.1706E+03  0.1091E+04
      3.382  0.1381E+03  0.1101E+04
      3.454  0.1195E+03  0.1109E+04
      3.526  0.1575E+03  0.1121E+04
      3.597  0.1631E+03  0.1132E+04
      3.669  0.1010E+03  0.1140E+04
      3.741  0.9676E+02  0.1147E+04
      3.812  0.6503E+02  0.1151E+04
      3.884  0.7234E+02  0.1156E+04
      3.956  0.7328E+02  0.1162E+04
      4.027  0.6539E+02  0.1166E+04
      4.099  0.9231E+02  0.1173E+04
      4.171  0.1035E+03  0.1180E+04
      4.242  0.1142E+03  0.1189E+04
      4.314  0.7506E+02  0.1194E+04
      4.386  0.7292E+02  0.1199E+04
      4.457  0.6538E+02  0.1204E+04
      4.529  0.9222E+02  0.1210E+04
      4.601  0.9330E+02  0.1217E+04
      4.672  0.1025E+03  0.1224E+04
      4.744  0.1398E+03  0.1234E+04
      4.815  0.1378E+03  0.1244E+04
      4.887  0.7242E+02  0.1250E+04
      4.959  0.5358E+02  0.1253E+04
      5.030  0.5507E+02  0.1257E+04
      5.102  0.8734E+02  0.1264E+04
      5.174  0.1443E+03  0.1274E+04
      5.245  0.1085E+03  0.1282E+04
      5.317  0.6302E+02  0.1286E+04
      5.389  0.5963E+02  0.1290E+04
      5.460  0.6910E+02  0.1295E+04
      5.532  0.7257E+02  0.1301E+04
      5.604  0.7657E+02  0.1306E+04
      5.675  0.1108E+03  0.1314E+04
      5.747  0.1319E+03  0.1324E+04
      5.819  0.7261E+02  0.1329E+04
      5.890  0.6447E+02  0.1333E+04
      5.962  0.5834E+02  0.1338E+04
      6.034  0.3038E+02  0.1340E+04
      6.105  0.1888E+02  0.1341E+04
      6.177  0.2156E+02  0.1343E+04
      6.249  0.1686E+02  0.1344E+04
      6.320  0.8939E+01  0.1344E+04
      6.392  0.9387E+00  0.1344E+04
      6.464  0.1219E+00  0.1345E+04
      6.535  0.1900E+01  0.1345E+04
      6.607  0.1775E+01  0.1345E+04
      6.679  0.5398E+01  0.1345E+04
      6.750  0.2300E+02  0.1347E+04
      6.822  0.2597E+02  0.1349E+04
      6.894  0.1114E+02  0.1349E+04
      6.965  0.6318E+01  0.1350E+04
      7.037  0.8967E+01  0.1351E+04
      7.109  0.4686E+01  0.1351E+04
      7.180  0.2157E+02  0.1352E+04
      7.252  0.2395E+02  0.1354E+04
      7.323  0.2804E+02  0.1356E+04
      7.395  0.3145E+02  0.1358E+04
      7.467  0.3030E+02  0.1361E+04
      7.538  0.6091E+02  0.1365E+04
      7.610  0.7133E+02  0.1370E+04
      7.682  0.2669E+02  0.1372E+04
      7.753  0.5486E+02  0.1376E+04
      7.825  0.6962E+02  0.1381E+04
      7.897  0.7324E+02  0.1386E+04
      7.968  0.7554E+02  0.1392E+04
      8.040  0.6588E+02  0.1396E+04
      8.112  0.3436E+02  0.1399E+04
      8.183  0.1861E+02  0.1400E+04
      8.255  0.8323E+01  0.1401E+04
      8.327  0.1048E+02  0.1401E+04
      8.398  0.5095E+02  0.1405E+04
      8.470  0.3400E+02  0.1408E+04
      8.542  0.3232E+02  0.1410E+04
      8.613  0.9524E+02  0.1417E+04
      8.685  0.1044E+03  0.1424E+04
      8.757  0.5853E+02  0.1428E+04
      8.828  0.5131E+02  0.1432E+04
      8.900  0.3340E+02  0.1434E+04
      8.972  0.4585E+02  0.1438E+04
      9.043  0.3020E+02  0.1440E+04
      9.115  0.2219E+02  0.1441E+04
      9.187  0.1028E+02  0.1442E+04
      9.258  0.1680E+02  0.1443E+04
      9.330  0.5373E+02  0.1447E+04
      9.402  0.4961E+02  0.1451E+04
      9.473  0.5428E+02  0.1455E+04
      9.545  0.3813E+02  0.1457E+04
      9.616  0.5087E+02  0.1461E+04
      9.688  0.5007E+02  0.1465E+04
      9.760  0.4772E+02  0.1468E+04
      9.831  0.5265E+02  0.1472E+04
      9.903  0.7624E+02  0.1477E+04
      9.975  0.5591E+02  0.1481E+04
     10.046  0.1085E+03  0.1489E+04
     10.118  0.1187E+03  0.1498E+04
     10.190  0.4263E+02  0.1501E+04
     10.261  0.2867E+02  0.1503E+04
     10.333  0.4884E+02  0.1506E+04
     10.405  0.5646E+02  0.1510E+04
     10.476  0.9038E+02  0.1517E+04
     10.548  0.1101E+03  0.1525E+04
     10.620  0.1118E+03  0.1533E+04
     10.691  0.9410E+02  0.1539E+04
     10.763  0.7845E+02  0.1545E+04
     10.835  0.1074E+03  0.1553E+04
     10.906  0.8965E+02  0.1559E+04
     10.978  0.6488E+02  0.1564E+04
     11.050  0.3480E+02  0.1566E+04
     11.121  0.5564E+02  0.1570E+04
     11.193  0.5163E+02  0.1574E+04
     11.265  0.4494E+02  0.1577E+04
     11.336  0.8318E+02  0.1583E+04
     11.408  0.5328E+02  0.1587E+04
     11.480  0.5518E+02  0.1591E+04
     11.551  0.8877E+02  0.1597E+04
     11.623  0.6797E+02  0.1602E+04
     11.695  0.4600E+02  0.1605E+04
     11.766  0.1202E+02  0.1606E+04
     11.838  0.1507E+02  0.1607E+04
     11.910  0.3628E+02  0.1610E+04
     11.981  0.2058E+02  0.1611E+04
     12.053  0.2991E+01  0.1612E+04
     12.124  0.4514E+01  0.1612E+04
     12.196  0.5526E+00  0.1612E+04
     12.268  0.2194E-02  0.1612E+04
     12.339  0.1956E-06  0.1612E+04
     12.411  0.3378E-12  0.1612E+04
     12.483  0.0000E+00  0.1612E+04
     12.554  0.0000E+00  0.1612E+04
     12.626  0.0000E+00  0.1612E+04
     12.698  0.0000E+00  0.1612E+04
     12.769  0.0000E+00  0.1612E+04
     12.841  0.0000E+00  0.1612E+04
     12.913  0.0000E+00  0.1612E+04
     12.984  0.0000E+00  0.1612E+04
     13.056  0.0000E+00  0.1612E+04
