<?xml version="1.0" encoding="ISO-8859-1"?>
<modeling>
 <generator>
  <i name="program" type="string">vasp </i>
  <i name="version" type="string">5.4.4.18Apr17-6-g9f103f2a35  </i>
  <i name="subversion" type="string">(build Jul 30 2020 14:31:59) complex            parallel </i>
  <i name="platform" type="string">LinuxIFC </i>
  <i name="date" type="string">2021 02 04 </i>
  <i name="time" type="string">08:10:10 </i>
 </generator>
 <incar>
  <i type="string" name="PREC">accurate</i>
  <i type="string" name="ALGO"> normal</i>
  <i type="logical" name="ADDGRID"> T  </i>
  <i type="int" name="ISPIN">     1</i>
  <i type="int" name="NELM">   200</i>
  <i type="int" name="NELMIN">     8</i>
  <i name="EDIFF">      0.00000001</i>
  <i type="int" name="ISIF">     3</i>
  <i type="int" name="ISYM">     0</i>
  <i name="ENCUT">    650.00000000</i>
  <i type="logical" name="LREAL"> F  </i>
  <i type="int" name="ISMEAR">     0</i>
  <i name="SIGMA">      0.05000000</i>
  <i type="logical" name="LWAVE"> F  </i>
  <i type="logical" name="LASPH"> T  </i>
  <v type="int" name="KPOINT_BSE">    -1     0     0     0</v>
  <i type="int" name="NELM">   200</i>
  <i type="string" name="GGA"> ps</i>
  <i type="logical" name="LASPH"> T  </i>
 </incar>
 <structure name="primitive_cell" >
  <crystal>
   <varray name="basis" >
    <v>      14.01039598       0.00139138       0.00000000 </v>
    <v>      -0.00150196      13.76691092       0.00000000 </v>
    <v>       0.00000000       0.00000000      14.55019386 </v>
   </varray>
   <i name="volume">   2806.43958022 </i>
   <varray name="rec_basis" >
    <v>       0.07137557       0.00000779       0.00000000 </v>
    <v>      -0.00000721       0.07263794       0.00000000 </v>
    <v>       0.00000000       0.00000000       0.06872761 </v>
   </varray>
  </crystal>
  <varray name="positions" >
   <v>       0.43059274       0.17167077       0.33247735 </v>
   <v>      -0.50000000       0.00000000       0.38812698 </v>
   <v>       0.25000000       0.25000000       0.33409665 </v>
   <v>      -0.50000000       0.25000000       0.16743769 </v>
   <v>      -0.42987656       0.07832506       0.22308000 </v>
   <v>      -0.50000000       0.25000000      -0.49922898 </v>
   <v>       0.32012224       0.17167631       0.49914189 </v>
   <v>       0.32012224       0.17167631       0.16580856 </v>
   <v>      -0.42987898       0.32832923       0.33247735 </v>
   <v>       0.42987656      -0.07832506       0.22308000 </v>
   <v>       0.42987656       0.42167494       0.22308000 </v>
   <v>      -0.32012052       0.07832633       0.38974408 </v>
   <v>       0.25000000       0.00000000       0.22145206 </v>
   <v>       0.17987948       0.07832633       0.38974408 </v>
   <v>       0.32012052      -0.07832633       0.38974408 </v>
   <v>       0.32012052       0.42167367       0.38974408 </v>
   <v>      -0.42987656       0.07832506      -0.44358667 </v>
   <v>      -0.25000000       0.25000000       0.33409665 </v>
   <v>      -0.50000000      -0.50000000       0.38812698 </v>
   <v>       0.25000000       0.00000000      -0.44521461 </v>
   <v>       0.42987656      -0.07832506      -0.44358667 </v>
   <v>       0.42987656       0.42167494      -0.44358667 </v>
   <v>      -0.32012224       0.32832369       0.49914189 </v>
   <v>      -0.32012224       0.32832369       0.16580856 </v>
   <v>      -0.50000000       0.00000000       0.05479365 </v>
   <v>       0.17987776       0.32832369       0.49914189 </v>
   <v>       0.17987776       0.32832369       0.16580856 </v>
   <v>       0.42987898       0.17167077      -0.33418932 </v>
   <v>       0.42987898       0.17167077      -0.00085599 </v>
   <v>      -0.42987898      -0.17167077       0.33247735 </v>
   <v>      -0.25000000       0.00000000       0.22145206 </v>
   <v>       0.25000000      -0.50000000       0.22145206 </v>
   <v>       0.07012344       0.07832506       0.22308000 </v>
   <v>      -0.32012052       0.07832633       0.05641075 </v>
   <v>       0.17987948       0.07832633       0.05641075 </v>
   <v>       0.07012102       0.32832923       0.33247735 </v>
   <v>       0.32012052      -0.07832633       0.05641075 </v>
   <v>       0.32012052       0.42167367       0.05641075 </v>
   <v>       0.25000000       0.25000000       0.00076332 </v>
   <v>       0.25000000       0.25000000      -0.33257001 </v>
   <v>      -0.42987898       0.32832923      -0.33418932 </v>
   <v>      -0.42987898       0.32832923      -0.00085599 </v>
   <v>      -0.17987776       0.17167631       0.49914189 </v>
   <v>      -0.17987776       0.17167631       0.16580856 </v>
   <v>      -0.25000000       0.00000000      -0.44521461 </v>
   <v>       0.25000000      -0.50000000      -0.44521461 </v>
   <v>      -0.42987656      -0.42167494       0.22308000 </v>
   <v>      -0.50000000      -0.50000000       0.05479365 </v>
   <v>       0.07012344       0.07832506      -0.44358667 </v>
   <v>      -0.50000000       0.00000000      -0.27853968 </v>
   <v>       0.25000000      -0.25000000       0.33409665 </v>
   <v>      -0.50000000      -0.25000000       0.16743769 </v>
   <v>      -0.32012224      -0.17167631       0.49914189 </v>
   <v>      -0.32012224      -0.17167631       0.16580856 </v>
   <v>       0.17987776      -0.17167631       0.49914189 </v>
   <v>       0.17987776      -0.17167631       0.16580856 </v>
   <v>      -0.50000000      -0.25000000      -0.49922898 </v>
   <v>      -0.17987948       0.42167367       0.38974408 </v>
   <v>      -0.17987948      -0.07832633       0.38974408 </v>
   <v>       0.00000000       0.00000000       0.38812698 </v>
   <v>      -0.25000000      -0.50000000       0.22145206 </v>
   <v>       0.00000000       0.25000000       0.16743769 </v>
   <v>       0.00000000       0.25000000      -0.49922898 </v>
   <v>      -0.32012052      -0.42167367       0.38974408 </v>
   <v>       0.17987948      -0.42167367       0.38974408 </v>
   <v>      -0.25000000       0.25000000       0.00076332 </v>
   <v>      -0.25000000       0.25000000      -0.33257001 </v>
   <v>      -0.42987656      -0.42167494      -0.44358667 </v>
   <v>      -0.32012052       0.07832633      -0.27692259 </v>
   <v>       0.17987948       0.07832633      -0.27692259 </v>
   <v>       0.32012052      -0.07832633      -0.27692259 </v>
   <v>       0.32012052       0.42167367      -0.27692259 </v>
   <v>      -0.42987656       0.07832506      -0.11025334 </v>
   <v>       0.42987898      -0.32832923       0.33247735 </v>
   <v>       0.07012102      -0.17167077       0.33247735 </v>
   <v>      -0.07012102       0.17167077       0.33247735 </v>
   <v>      -0.42987898      -0.17167077      -0.33418932 </v>
   <v>      -0.42987898      -0.17167077      -0.00085599 </v>
   <v>      -0.25000000      -0.50000000      -0.44521461 </v>
   <v>       0.42987656      -0.07832506      -0.11025334 </v>
   <v>       0.42987656       0.42167494      -0.11025334 </v>
   <v>      -0.50000000      -0.50000000      -0.27853968 </v>
   <v>       0.07012102       0.32832923      -0.33418932 </v>
   <v>       0.07012102       0.32832923      -0.00085599 </v>
   <v>      -0.25000000      -0.25000000       0.33409665 </v>
   <v>       0.25000000       0.00000000      -0.11188127 </v>
   <v>      -0.50000000       0.25000000      -0.16589565 </v>
   <v>       0.32012224       0.17167631      -0.16752478 </v>
   <v>       0.32012224      -0.32832369       0.49914189 </v>
   <v>       0.32012224      -0.32832369       0.16580856 </v>
   <v>       0.00000000      -0.50000000       0.38812698 </v>
   <v>      -0.17987948       0.42167367       0.05641075 </v>
   <v>      -0.17987948      -0.07832633       0.05641075 </v>
   <v>       0.00000000       0.00000000       0.05479365 </v>
   <v>       0.07012344      -0.42167494       0.22308000 </v>
   <v>      -0.32012052      -0.42167367       0.05641075 </v>
   <v>       0.17987948      -0.42167367       0.05641075 </v>
   <v>      -0.07012344       0.42167494       0.22308000 </v>
   <v>      -0.07012344      -0.07832506       0.22308000 </v>
   <v>       0.25000000      -0.25000000       0.00076332 </v>
   <v>       0.25000000      -0.25000000      -0.33257001 </v>
   <v>      -0.25000000       0.00000000      -0.11188127 </v>
   <v>       0.07012344      -0.42167494      -0.44358667 </v>
   <v>       0.25000000      -0.50000000      -0.11188127 </v>
   <v>       0.07012344       0.07832506      -0.11025334 </v>
   <v>      -0.32012224       0.32832369      -0.16752478 </v>
   <v>       0.17987776       0.32832369      -0.16752478 </v>
   <v>       0.42987898      -0.32832923      -0.33418932 </v>
   <v>       0.42987898      -0.32832923      -0.00085599 </v>
   <v>       0.07012102      -0.17167077      -0.33418932 </v>
   <v>       0.07012102      -0.17167077      -0.00085599 </v>
   <v>      -0.07012344       0.42167494      -0.44358667 </v>
   <v>      -0.07012344      -0.07832506      -0.44358667 </v>
   <v>      -0.07012102       0.17167077      -0.33418932 </v>
   <v>      -0.07012102       0.17167077      -0.00085599 </v>
   <v>       0.00000000      -0.50000000       0.05479365 </v>
   <v>      -0.17987948       0.42167367      -0.27692259 </v>
   <v>      -0.17987948      -0.07832633      -0.27692259 </v>
   <v>       0.00000000       0.00000000      -0.27853968 </v>
   <v>      -0.32012052      -0.42167367      -0.27692259 </v>
   <v>       0.00000000      -0.25000000       0.16743769 </v>
   <v>       0.17987948      -0.42167367      -0.27692259 </v>
   <v>       0.00000000      -0.25000000      -0.49922898 </v>
   <v>      -0.42987656      -0.42167494      -0.11025334 </v>
   <v>      -0.25000000      -0.25000000       0.00076332 </v>
   <v>      -0.25000000      -0.25000000      -0.33257001 </v>
   <v>      -0.25000000      -0.50000000      -0.11188127 </v>
   <v>      -0.17987776       0.17167631      -0.16752478 </v>
   <v>      -0.17987776      -0.32832369       0.49914189 </v>
   <v>      -0.17987776      -0.32832369       0.16580856 </v>
   <v>      -0.50000000      -0.25000000      -0.16589565 </v>
   <v>      -0.32012224      -0.17167631      -0.16752478 </v>
   <v>       0.17987776      -0.17167631      -0.16752478 </v>
   <v>       0.00000000      -0.50000000      -0.27853968 </v>
   <v>       0.00000000       0.25000000      -0.16589565 </v>
   <v>      -0.07012102      -0.32832923       0.33247735 </v>
   <v>       0.07012344      -0.42167494      -0.11025334 </v>
   <v>      -0.07012344       0.42167494      -0.11025334 </v>
   <v>      -0.07012344      -0.07832506      -0.11025334 </v>
   <v>       0.32012224      -0.32832369      -0.16752478 </v>
   <v>      -0.07012102      -0.32832923      -0.33418932 </v>
   <v>      -0.07012102      -0.32832923      -0.00085599 </v>
   <v>       0.00000000      -0.25000000      -0.16589565 </v>
   <v>      -0.17987776      -0.32832369      -0.16752478 </v>
  </varray>
 </structure>
 <varray name="primitive_index" >
  <v type="int" >        1 </v>
  <v type="int" >      102 </v>
  <v type="int" >      137 </v>
  <v type="int" >      122 </v>
  <v type="int" >       86 </v>
  <v type="int" >      126 </v>
  <v type="int" >       65 </v>
  <v type="int" >       61 </v>
  <v type="int" >       14 </v>
  <v type="int" >       75 </v>
  <v type="int" >       73 </v>
  <v type="int" >       42 </v>
  <v type="int" >      109 </v>
  <v type="int" >       41 </v>
  <v type="int" >       31 </v>
  <v type="int" >       29 </v>
  <v type="int" >       90 </v>
  <v type="int" >      138 </v>
  <v type="int" >      104 </v>
  <v type="int" >      113 </v>
  <v type="int" >       79 </v>
  <v type="int" >       77 </v>
  <v type="int" >       54 </v>
  <v type="int" >       50 </v>
  <v type="int" >       98 </v>
  <v type="int" >       53 </v>
  <v type="int" >       49 </v>
  <v type="int" >        5 </v>
  <v type="int" >        9 </v>
  <v type="int" >       16 </v>
  <v type="int" >      110 </v>
  <v type="int" >      111 </v>
  <v type="int" >       85 </v>
  <v type="int" >       38 </v>
  <v type="int" >       37 </v>
  <v type="int" >       13 </v>
  <v type="int" >       27 </v>
  <v type="int" >       25 </v>
  <v type="int" >      133 </v>
  <v type="int" >      141 </v>
  <v type="int" >       18 </v>
  <v type="int" >       22 </v>
  <v type="int" >       66 </v>
  <v type="int" >       62 </v>
  <v type="int" >      114 </v>
  <v type="int" >      115 </v>
  <v type="int" >       88 </v>
  <v type="int" >      100 </v>
  <v type="int" >       89 </v>
  <v type="int" >      106 </v>
  <v type="int" >      139 </v>
  <v type="int" >      124 </v>
  <v type="int" >       56 </v>
  <v type="int" >       52 </v>
  <v type="int" >       55 </v>
  <v type="int" >       51 </v>
  <v type="int" >      128 </v>
  <v type="int" >       30 </v>
  <v type="int" >       32 </v>
  <v type="int" >      101 </v>
  <v type="int" >      112 </v>
  <v type="int" >      121 </v>
  <v type="int" >      125 </v>
  <v type="int" >       44 </v>
  <v type="int" >       43 </v>
  <v type="int" >      134 </v>
  <v type="int" >      142 </v>
  <v type="int" >       92 </v>
  <v type="int" >       46 </v>
  <v type="int" >       45 </v>
  <v type="int" >       35 </v>
  <v type="int" >       33 </v>
  <v type="int" >       94 </v>
  <v type="int" >        3 </v>
  <v type="int" >       15 </v>
  <v type="int" >        2 </v>
  <v type="int" >       20 </v>
  <v type="int" >       24 </v>
  <v type="int" >      116 </v>
  <v type="int" >       83 </v>
  <v type="int" >       81 </v>
  <v type="int" >      108 </v>
  <v type="int" >       17 </v>
  <v type="int" >       21 </v>
  <v type="int" >      140 </v>
  <v type="int" >      117 </v>
  <v type="int" >      130 </v>
  <v type="int" >       69 </v>
  <v type="int" >       67 </v>
  <v type="int" >       63 </v>
  <v type="int" >      103 </v>
  <v type="int" >       26 </v>
  <v type="int" >       28 </v>
  <v type="int" >       97 </v>
  <v type="int" >       87 </v>
  <v type="int" >       40 </v>
  <v type="int" >       39 </v>
  <v type="int" >       74 </v>
  <v type="int" >       76 </v>
  <v type="int" >      135 </v>
  <v type="int" >      143 </v>
  <v type="int" >      118 </v>
  <v type="int" >       91 </v>
  <v type="int" >      119 </v>
  <v type="int" >       93 </v>
  <v type="int" >       58 </v>
  <v type="int" >       57 </v>
  <v type="int" >        7 </v>
  <v type="int" >       11 </v>
  <v type="int" >       19 </v>
  <v type="int" >       23 </v>
  <v type="int" >       78 </v>
  <v type="int" >       80 </v>
  <v type="int" >        6 </v>
  <v type="int" >       10 </v>
  <v type="int" >       99 </v>
  <v type="int" >       34 </v>
  <v type="int" >       36 </v>
  <v type="int" >      105 </v>
  <v type="int" >       48 </v>
  <v type="int" >      123 </v>
  <v type="int" >       47 </v>
  <v type="int" >      127 </v>
  <v type="int" >       96 </v>
  <v type="int" >      136 </v>
  <v type="int" >      144 </v>
  <v type="int" >      120 </v>
  <v type="int" >       70 </v>
  <v type="int" >       68 </v>
  <v type="int" >       64 </v>
  <v type="int" >      132 </v>
  <v type="int" >       60 </v>
  <v type="int" >       59 </v>
  <v type="int" >      107 </v>
  <v type="int" >      129 </v>
  <v type="int" >        4 </v>
  <v type="int" >       95 </v>
  <v type="int" >       82 </v>
  <v type="int" >       84 </v>
  <v type="int" >       71 </v>
  <v type="int" >        8 </v>
  <v type="int" >       12 </v>
  <v type="int" >      131 </v>
  <v type="int" >       72 </v>
 </varray>
 <kpoints>
  <generation param="Gamma">
   <v type="int" name="divisions">       2        2        2 </v>
   <v name="usershift">      0.00000000       0.00000000       0.00000000 </v>
   <v name="genvec1">      0.50000000       0.00000000       0.00000000 </v>
   <v name="genvec2">      0.00000000       0.50000000       0.00000000 </v>
   <v name="genvec3">      0.00000000       0.00000000       0.50000000 </v>
   <v name="shift">      0.00000000       0.00000000       0.00000000 </v>
  </generation>
  <varray name="kpointlist" >
   <v>       0.00000000       0.00000000       0.00000000 </v>
   <v>       0.50000000      -0.00000000       0.00000000 </v>
   <v>       0.00000000       0.50000000       0.00000000 </v>
   <v>       0.50000000       0.50000000       0.00000000 </v>
   <v>       0.00000000       0.00000000       0.50000000 </v>
   <v>       0.50000000      -0.00000000       0.50000000 </v>
   <v>       0.00000000       0.50000000       0.50000000 </v>
   <v>       0.50000000       0.50000000       0.50000000 </v>
  </varray>
  <varray name="weights" >
   <v>       0.12500000 </v>
   <v>       0.12500000 </v>
   <v>       0.12500000 </v>
   <v>       0.12500000 </v>
   <v>       0.12500000 </v>
   <v>       0.12500000 </v>
   <v>       0.12500000 </v>
   <v>       0.12500000 </v>
  </varray>
 </kpoints>
 <parameters>
  <separator name="general" >
   <i type="string" name="SYSTEM">unknown system</i>
   <i type="logical" name="LCOMPAT"> F  </i>
  </separator>
  <separator name="electronic" >
   <i type="string" name="PREC">accura</i>
   <i name="ENMAX">    650.00000000</i>
   <i name="ENAUG">    446.84200000</i>
   <i name="EDIFF">      0.00000001</i>
   <i type="int" name="IALGO">    38</i>
   <i type="int" name="IWAVPR">    10</i>
   <i type="int" name="NBANDS">   806</i>
   <i name="NELECT">   1344.00000000</i>
   <i type="int" name="TURBO">     0</i>
   <i type="int" name="IRESTART">     0</i>
   <i type="int" name="NREBOOT">     0</i>
   <i type="int" name="NMIN">     0</i>
   <i name="EREF">      0.00000000</i>
   <separator name="electronic smearing" >
    <i type="int" name="ISMEAR">     0</i>
    <i name="SIGMA">      0.05000000</i>
    <i name="KSPACING">      0.50000000</i>
    <i type="logical" name="KGAMMA"> T  </i>
   </separator>
   <separator name="electronic projectors" >
    <i type="logical" name="LREAL"> F  </i>
    <v name="ROPT">      0.00000000      0.00000000</v>
    <i type="int" name="LMAXPAW">  -100</i>
    <i type="int" name="LMAXMIX">     2</i>
    <i type="logical" name="NLSPLINE"> F  </i>
   </separator>
   <separator name="electronic startup" >
    <i type="int" name="ISTART">     0</i>
    <i type="int" name="ICHARG">     2</i>
    <i type="int" name="INIWAV">     1</i>
   </separator>
   <separator name="electronic spin" >
    <i type="int" name="ISPIN">     1</i>
    <i type="logical" name="LNONCOLLINEAR"> F  </i>
    <v name="MAGMOM">      1.00000000      1.00000000      1.00000000      1.00000000      1.00000000      1.00000000      1.00000000      1.00000000      1.00000000      1.00000000      1.00000000      1.00000000      1.00000000      1.00000000      1.00000000      1.00000000      1.00000000      1.00000000      1.00000000      1.00000000
      1.00000000      1.00000000      1.00000000      1.00000000      1.00000000      1.00000000      1.00000000      1.00000000      1.00000000      1.00000000      1.00000000      1.00000000      1.00000000      1.00000000      1.00000000      1.00000000      1.00000000      1.00000000      1.00000000      1.00000000
      1.00000000      1.00000000      1.00000000      1.00000000      1.00000000      1.00000000      1.00000000      1.00000000      1.00000000      1.00000000      1.00000000      1.00000000      1.00000000      1.00000000      1.00000000      1.00000000      1.00000000      1.00000000      1.00000000      1.00000000
      1.00000000      1.00000000      1.00000000      1.00000000      1.00000000      1.00000000      1.00000000      1.00000000      1.00000000      1.00000000      1.00000000      1.00000000      1.00000000      1.00000000      1.00000000      1.00000000      1.00000000      1.00000000      1.00000000      1.00000000
      1.00000000      1.00000000      1.00000000      1.00000000      1.00000000      1.00000000      1.00000000      1.00000000      1.00000000      1.00000000      1.00000000      1.00000000      1.00000000      1.00000000      1.00000000      1.00000000      1.00000000      1.00000000      1.00000000      1.00000000
      1.00000000      1.00000000      1.00000000      1.00000000      1.00000000      1.00000000      1.00000000      1.00000000      1.00000000      1.00000000      1.00000000      1.00000000      1.00000000      1.00000000      1.00000000      1.00000000      1.00000000      1.00000000      1.00000000      1.00000000
      1.00000000      1.00000000      1.00000000      1.00000000      1.00000000      1.00000000      1.00000000      1.00000000      1.00000000      1.00000000      1.00000000      1.00000000      1.00000000      1.00000000      1.00000000      1.00000000      1.00000000      1.00000000      1.00000000      1.00000000
      1.00000000      1.00000000      1.00000000      1.00000000</v>
    <i name="NUPDOWN">     -1.00000000</i>
    <i type="logical" name="LSORBIT"> F  </i>
    <v name="SAXIS">      0.00000000      0.00000000      1.00000000</v>
    <i type="logical" name="LSPIRAL"> F  </i>
    <v name="QSPIRAL">      0.00000000      0.00000000      0.00000000</v>
    <i type="logical" name="LZEROZ"> F  </i>
   </separator>
   <separator name="electronic exchange-correlation" >
    <i type="logical" name="LASPH"> T  </i>
    <i type="logical" name="LMETAGGA"> F  </i>
   </separator>
   <separator name="electronic convergence" >
    <i type="int" name="NELM">   200</i>
    <i type="int" name="NELMDL">    -5</i>
    <i type="int" name="NELMIN">     8</i>
    <i name="ENINI">    650.00000000</i>
    <separator name="electronic convergence detail" >
     <i type="logical" name="LDIAG"> T  </i>
     <i type="logical" name="LSUBROT"> F  </i>
     <i name="WEIMIN">      0.00000000</i>
     <i name="EBREAK">      0.00000000</i>
     <i name="DEPER">      0.30000000</i>
     <i type="int" name="NRMM">     4</i>
     <i name="TIME">      0.40000000</i>
    </separator>
   </separator>
   <separator name="electronic mixer" >
    <i name="AMIX">      0.40000000</i>
    <i name="BMIX">      1.00000000</i>
    <i name="AMIN">      0.10000000</i>
    <i name="AMIX_MAG">      1.60000000</i>
    <i name="BMIX_MAG">      1.00000000</i>
    <separator name="electronic mixer details" >
     <i type="int" name="IMIX">     4</i>
     <i type="logical" name="MIXFIRST"> F  </i>
     <i type="int" name="MAXMIX">   -45</i>
     <i name="WC">    100.00000000</i>
     <i type="int" name="INIMIX">     1</i>
     <i type="int" name="MIXPRE">     1</i>
     <i type="int" name="MREMOVE">     5</i>
    </separator>
   </separator>
   <separator name="electronic dipolcorrection" >
    <i type="logical" name="LDIPOL"> F  </i>
    <i type="logical" name="LMONO"> F  </i>
    <i type="int" name="IDIPOL">     0</i>
    <i name="EPSILON">      1.00000000</i>
    <v name="DIPOL">   -100.00000000   -100.00000000   -100.00000000</v>
    <i name="EFIELD">      0.00000000</i>
   </separator>
  </separator>
  <separator name="grids" >
   <i type="int" name="NGX">   120</i>
   <i type="int" name="NGY">   120</i>
   <i type="int" name="NGZ">   126</i>
   <i type="int" name="NGXF">   240</i>
   <i type="int" name="NGYF">   240</i>
   <i type="int" name="NGZF">   252</i>
   <i type="logical" name="ADDGRID"> T  </i>
  </separator>
  <separator name="ionic" >
   <i type="int" name="NSW">     0</i>
   <i type="int" name="IBRION">    -1</i>
   <i type="int" name="MDALGO">     0</i>
   <i type="int" name="ISIF">     3</i>
   <i name="PSTRESS">      0.00000000</i>
   <i name="EDIFFG">      0.00000010</i>
   <i type="int" name="NFREE">     0</i>
   <i name="POTIM">      0.50000000</i>
   <i name="SMASS">     -3.00000000</i>
   <i name="SCALEE">      1.00000000</i>
  </separator>
  <separator name="ionic md" >
   <i name="TEBEG">      0.00010000</i>
   <i name="TEEND">      0.00010000</i>
   <i type="int" name="NBLOCK">     1</i>
   <i type="int" name="KBLOCK">     1</i>
   <i type="int" name="NPACO">   256</i>
   <i name="APACO">     16.00000000</i>
  </separator>
  <separator name="symmetry" >
   <i type="int" name="ISYM">     0</i>
   <i name="SYMPREC">      0.00001000</i>
  </separator>
  <separator name="dos" >
   <i type="int" name="LORBIT">     0</i>
   <v name="RWIGS">     -1.00000000     -1.00000000</v>
   <i type="int" name="NEDOS">   301</i>
   <i name="EMIN">     10.00000000</i>
   <i name="EMAX">    -10.00000000</i>
   <i name="EFERMI">      0.00000000</i>
  </separator>
  <separator name="writing" >
   <i type="int" name="NWRITE">     2</i>
   <i type="logical" name="LWAVE"> F  </i>
   <i type="logical" name="LDOWNSAMPLE"> F  </i>
   <i type="logical" name="LCHARG"> T  </i>
   <i type="logical" name="LPARD"> F  </i>
   <i type="logical" name="LVTOT"> F  </i>
   <i type="logical" name="LVHAR"> F  </i>
   <i type="logical" name="LELF"> F  </i>
   <i type="logical" name="LOPTICS"> F  </i>
   <v name="STM">      0.00000000      0.00000000      0.00000000      0.00000000      0.00000000      0.00000000      0.00000000</v>
  </separator>
  <separator name="performance" >
   <i type="int" name="NPAR">     1</i>
   <i type="int" name="NSIM">     4</i>
   <i type="int" name="NBLK">    -1</i>
   <i type="logical" name="LPLANE"> T  </i>
   <i type="logical" name="LSCALAPACK"> T  </i>
   <i type="logical" name="LSCAAWARE"> F  </i>
   <i type="logical" name="LSCALU"> F  </i>
   <i type="logical" name="LASYNC"> F  </i>
   <i type="logical" name="LORBITALREAL"> F  </i>
  </separator>
  <separator name="miscellaneous" >
   <i type="int" name="IDIOT">     3</i>
   <i type="int" name="ISPECIAL">     0</i>
   <i type="logical" name="LMUSIC"> F  </i>
   <v name="POMASS">    107.86800000     78.96000000</v>
   <v name="DARWINR">      0.00000000      0.00000000</v>
   <v name="DARWINV">      1.00000000      1.00000000</v>
   <i type="logical" name="LCORR"> T  </i>
  </separator>
  <i type="logical" name="GGA_COMPAT"> T  </i>
  <i type="logical" name="LBERRY"> F  </i>
  <i type="int" name="ICORELEVEL">     0</i>
  <i type="logical" name="LDAU"> F  </i>
  <i type="int" name="I_CONSTRAINED_M">     0</i>
  <separator name="electronic exchange-correlation" >
   <i type="string" name="GGA">PS</i>
   <i type="int" name="VOSKOWN">     0</i>
   <i type="logical" name="LHFCALC"> F  </i>
   <i type="string" name="PRECFOCK"></i>
   <i type="logical" name="LSYMGRAD"> F  </i>
   <i type="logical" name="LHFONE"> F  </i>
   <i type="logical" name="LRHFCALC"> F  </i>
   <i type="logical" name="LTHOMAS"> F  </i>
   <i type="logical" name="LMODELHF"> F  </i>
   <i name="ENCUT4O">     -1.00000000</i>
   <i type="int" name="EXXOEP">     0</i>
   <i type="int" name="FOURORBIT">     0</i>
   <i name="AEXX">      0.00000000</i>
   <i name="HFALPHA">      0.00000000</i>
   <i name="MCALPHA">      0.00000000</i>
   <i name="ALDAX">      1.00000000</i>
   <i name="AGGAX">      1.00000000</i>
   <i name="ALDAC">      1.00000000</i>
   <i name="AGGAC">      1.00000000</i>
   <i type="int" name="NKREDX">     1</i>
   <i type="int" name="NKREDY">     1</i>
   <i type="int" name="NKREDZ">     1</i>
   <i type="logical" name="SHIFTRED"> F  </i>
   <i type="logical" name="ODDONLY"> F  </i>
   <i type="logical" name="EVENONLY"> F  </i>
   <i type="int" name="LMAXFOCK">     0</i>
   <i type="int" name="NMAXFOCKAE">     0</i>
   <i type="logical" name="LFOCKAEDFT"> F  </i>
   <i name="HFSCREEN">      0.00000000</i>
   <i name="HFSCREENC">      0.00000000</i>
   <i type="int" name="NBANDSGWLOW">     0</i>
  </separator>
  <separator name="vdW DFT" >
   <i type="logical" name="LUSE_VDW"> F  </i>
   <i name="Zab_VDW">     -0.84910000</i>
   <i name="PARAM1">      0.12340000</i>
   <i name="PARAM2">      1.00000000</i>
   <i name="PARAM3">      0.00000000</i>
  </separator>
  <separator name="model GW" >
   <i type="int" name="MODEL_GW">     0</i>
   <i name="MODEL_EPS0">     11.69349825</i>
   <i name="MODEL_ALPHA">      1.00000000</i>
  </separator>
  <separator name="linear response parameters" >
   <i type="logical" name="LEPSILON"> F  </i>
   <i type="logical" name="LRPA"> F  </i>
   <i type="logical" name="LNABLA"> F  </i>
   <i type="logical" name="LVEL"> F  </i>
   <i type="int" name="KINTER">     0</i>
   <i name="CSHIFT">      0.10000000</i>
   <i name="OMEGAMAX">     -1.00000000</i>
   <i name="DEG_THRESHOLD">      0.00200000</i>
   <i name="RTIME">     -0.10000000</i>
   <i name="WPLASMAI">      0.00000000</i>
   <v name="DFIELD">      0.00000000      0.00000000      0.00000000</v>
   <v name="WPLASMA">      0.00000000      0.00000000      0.00000000      0.00000000      0.00000000      0.00000000      0.00000000      0.00000000      0.00000000</v>
  </separator>
  <separator name="orbital magnetization" >
   <i type="logical" name="NUCIND"> F  </i>
   <v name="MAGPOS">      0.00000000      0.00000000      0.00000000</v>
   <i type="logical" name="LNICSALL"> T  </i>
   <i type="logical" name="ORBITALMAG"> F  </i>
   <i type="logical" name="LMAGBLOCH"> F  </i>
   <i type="logical" name="LCHIMAG"> F  </i>
   <i type="logical" name="LGAUGE"> T  </i>
   <i type="int" name="MAGATOM">     0</i>
   <v name="MAGDIPOL">      0.00000000      0.00000000      0.00000000</v>
   <v name="AVECCONST">      0.00000000      0.00000000      0.00000000</v>
  </separator>
  <separator name="response functions" >
   <i type="logical" name="LADDER"> F  </i>
   <i type="logical" name="LRPAFORCE"> F  </i>
   <i type="logical" name="LFXC"> F  </i>
   <i type="logical" name="LHARTREE"> T  </i>
   <i type="int" name="IBSE">     0</i>
   <v type="int" name="KPOINT">    -1     0     0     0</v>
   <i type="logical" name="LTCTE"> F  </i>
   <i type="logical" name="LTETE"> F  </i>
   <i type="logical" name="LTRIPLET"> F  </i>
   <i type="logical" name="LFXCEPS"> F  </i>
   <i type="logical" name="LFXHEG"> F  </i>
   <i type="int" name="NATURALO">     2</i>
   <i type="logical" name="L2ORDER"> F  </i>
   <i type="logical" name="LMP2LT"> F  </i>
   <i type="logical" name="LUSEW"> F  </i>
   <i name="ENCUTGW">     -2.00000000</i>
   <i name="ENCUTGWSOFT">     -2.00000000</i>
   <i name="ENCUTLF">     -1.00000000</i>
   <i type="int" name="LMAXMP2">    -1</i>
   <i name="SCISSOR">      0.00000000</i>
   <i type="int" name="NOMEGA">     0</i>
   <i type="int" name="NOMEGAR">     0</i>
   <i type="int" name="NBANDSGW">    -1</i>
   <i type="int" name="NBANDSO">    -1</i>
   <i type="int" name="NBANDSV">    -1</i>
   <i type="int" name="NELM">   200</i>
   <i type="int" name="NELMHF">     1</i>
   <i type="int" name="DIM">     3</i>
   <i type="int" name="ANTIRES">     0</i>
   <i name="OMEGAMAX">    -30.00000000</i>
   <i name="OMEGAMIN">    -30.00000000</i>
   <i name="OMEGATL">   -200.00000000</i>
   <i type="int" name="OMEGAGRID">   140</i>
   <i name="CSHIFT">     -0.10000000</i>
   <i type="logical" name="SELFENERGY"> F  </i>
   <i type="logical" name="LSPECTRAL"> F  </i>
   <i type="logical" name="LSPECTRALGW"> F  </i>
   <i type="logical" name="LSINGLES"> F  </i>
   <i type="logical" name="LFERMIGW"> F  </i>
   <i type="logical" name="ODDONLYGW"> F  </i>
   <i type="logical" name="EVENONLYGW"> F  </i>
   <i type="int" name="NKREDLFX">     1</i>
   <i type="int" name="NKREDLFY">     1</i>
   <i type="int" name="NKREDLFZ">     1</i>
   <i type="int" name="MAXMEM">  2800</i>
   <i type="int" name="TELESCOPE">     0</i>
   <i type="int" name="TAUPAR">     1</i>
   <i type="int" name="OMEGAPAR">    -1</i>
   <i name="LAMBDA">      1.00000000</i>
  </separator>
  <separator name="External order field" >
   <i name="OFIELD_KAPPA">      0.00000000</i>
   <v name="OFIELD_K">      0.00000000      0.00000000      0.00000000</v>
   <i name="OFIELD_Q6_NEAR">      0.00000000</i>
   <i name="OFIELD_Q6_FAR">      0.00000000</i>
   <i name="OFIELD_A">      0.00000000</i>
  </separator>
 </parameters>
 <atominfo>
  <atoms>     144 </atoms>
  <types>       2 </types>
  <array name="atoms" >
   <dimension dim="1">ion</dimension>
   <field type="string">element</field>
   <field type="int">atomtype</field>
   <set>
    <rc><c>Ag</c><c>   1</c></rc>
    <rc><c>Ag</c><c>   1</c></rc>
    <rc><c>Ag</c><c>   1</c></rc>
    <rc><c>Ag</c><c>   1</c></rc>
    <rc><c>Ag</c><c>   1</c></rc>
    <rc><c>Ag</c><c>   1</c></rc>
    <rc><c>Ag</c><c>   1</c></rc>
    <rc><c>Ag</c><c>   1</c></rc>
    <rc><c>Ag</c><c>   1</c></rc>
    <rc><c>Ag</c><c>   1</c></rc>
    <rc><c>Ag</c><c>   1</c></rc>
    <rc><c>Ag</c><c>   1</c></rc>
    <rc><c>Ag</c><c>   1</c></rc>
    <rc><c>Ag</c><c>   1</c></rc>
    <rc><c>Ag</c><c>   1</c></rc>
    <rc><c>Ag</c><c>   1</c></rc>
    <rc><c>Ag</c><c>   1</c></rc>
    <rc><c>Ag</c><c>   1</c></rc>
    <rc><c>Ag</c><c>   1</c></rc>
    <rc><c>Ag</c><c>   1</c></rc>
    <rc><c>Ag</c><c>   1</c></rc>
    <rc><c>Ag</c><c>   1</c></rc>
    <rc><c>Ag</c><c>   1</c></rc>
    <rc><c>Ag</c><c>   1</c></rc>
    <rc><c>Ag</c><c>   1</c></rc>
    <rc><c>Ag</c><c>   1</c></rc>
    <rc><c>Ag</c><c>   1</c></rc>
    <rc><c>Ag</c><c>   1</c></rc>
    <rc><c>Ag</c><c>   1</c></rc>
    <rc><c>Ag</c><c>   1</c></rc>
    <rc><c>Ag</c><c>   1</c></rc>
    <rc><c>Ag</c><c>   1</c></rc>
    <rc><c>Ag</c><c>   1</c></rc>
    <rc><c>Ag</c><c>   1</c></rc>
    <rc><c>Ag</c><c>   1</c></rc>
    <rc><c>Ag</c><c>   1</c></rc>
    <rc><c>Ag</c><c>   1</c></rc>
    <rc><c>Ag</c><c>   1</c></rc>
    <rc><c>Ag</c><c>   1</c></rc>
    <rc><c>Ag</c><c>   1</c></rc>
    <rc><c>Ag</c><c>   1</c></rc>
    <rc><c>Ag</c><c>   1</c></rc>
    <rc><c>Ag</c><c>   1</c></rc>
    <rc><c>Ag</c><c>   1</c></rc>
    <rc><c>Ag</c><c>   1</c></rc>
    <rc><c>Ag</c><c>   1</c></rc>
    <rc><c>Ag</c><c>   1</c></rc>
    <rc><c>Ag</c><c>   1</c></rc>
    <rc><c>Ag</c><c>   1</c></rc>
    <rc><c>Ag</c><c>   1</c></rc>
    <rc><c>Ag</c><c>   1</c></rc>
    <rc><c>Ag</c><c>   1</c></rc>
    <rc><c>Ag</c><c>   1</c></rc>
    <rc><c>Ag</c><c>   1</c></rc>
    <rc><c>Ag</c><c>   1</c></rc>
    <rc><c>Ag</c><c>   1</c></rc>
    <rc><c>Ag</c><c>   1</c></rc>
    <rc><c>Ag</c><c>   1</c></rc>
    <rc><c>Ag</c><c>   1</c></rc>
    <rc><c>Ag</c><c>   1</c></rc>
    <rc><c>Ag</c><c>   1</c></rc>
    <rc><c>Ag</c><c>   1</c></rc>
    <rc><c>Ag</c><c>   1</c></rc>
    <rc><c>Ag</c><c>   1</c></rc>
    <rc><c>Ag</c><c>   1</c></rc>
    <rc><c>Ag</c><c>   1</c></rc>
    <rc><c>Ag</c><c>   1</c></rc>
    <rc><c>Ag</c><c>   1</c></rc>
    <rc><c>Ag</c><c>   1</c></rc>
    <rc><c>Ag</c><c>   1</c></rc>
    <rc><c>Ag</c><c>   1</c></rc>
    <rc><c>Ag</c><c>   1</c></rc>
    <rc><c>Ag</c><c>   1</c></rc>
    <rc><c>Ag</c><c>   1</c></rc>
    <rc><c>Ag</c><c>   1</c></rc>
    <rc><c>Ag</c><c>   1</c></rc>
    <rc><c>Ag</c><c>   1</c></rc>
    <rc><c>Ag</c><c>   1</c></rc>
    <rc><c>Ag</c><c>   1</c></rc>
    <rc><c>Ag</c><c>   1</c></rc>
    <rc><c>Ag</c><c>   1</c></rc>
    <rc><c>Ag</c><c>   1</c></rc>
    <rc><c>Ag</c><c>   1</c></rc>
    <rc><c>Ag</c><c>   1</c></rc>
    <rc><c>Ag</c><c>   1</c></rc>
    <rc><c>Ag</c><c>   1</c></rc>
    <rc><c>Ag</c><c>   1</c></rc>
    <rc><c>Ag</c><c>   1</c></rc>
    <rc><c>Ag</c><c>   1</c></rc>
    <rc><c>Ag</c><c>   1</c></rc>
    <rc><c>Ag</c><c>   1</c></rc>
    <rc><c>Ag</c><c>   1</c></rc>
    <rc><c>Ag</c><c>   1</c></rc>
    <rc><c>Ag</c><c>   1</c></rc>
    <rc><c>Ag</c><c>   1</c></rc>
    <rc><c>Ag</c><c>   1</c></rc>
    <rc><c>Se</c><c>   2</c></rc>
    <rc><c>Se</c><c>   2</c></rc>
    <rc><c>Se</c><c>   2</c></rc>
    <rc><c>Se</c><c>   2</c></rc>
    <rc><c>Se</c><c>   2</c></rc>
    <rc><c>Se</c><c>   2</c></rc>
    <rc><c>Se</c><c>   2</c></rc>
    <rc><c>Se</c><c>   2</c></rc>
    <rc><c>Se</c><c>   2</c></rc>
    <rc><c>Se</c><c>   2</c></rc>
    <rc><c>Se</c><c>   2</c></rc>
    <rc><c>Se</c><c>   2</c></rc>
    <rc><c>Se</c><c>   2</c></rc>
    <rc><c>Se</c><c>   2</c></rc>
    <rc><c>Se</c><c>   2</c></rc>
    <rc><c>Se</c><c>   2</c></rc>
    <rc><c>Se</c><c>   2</c></rc>
    <rc><c>Se</c><c>   2</c></rc>
    <rc><c>Se</c><c>   2</c></rc>
    <rc><c>Se</c><c>   2</c></rc>
    <rc><c>Se</c><c>   2</c></rc>
    <rc><c>Se</c><c>   2</c></rc>
    <rc><c>Se</c><c>   2</c></rc>
    <rc><c>Se</c><c>   2</c></rc>
    <rc><c>Se</c><c>   2</c></rc>
    <rc><c>Se</c><c>   2</c></rc>
    <rc><c>Se</c><c>   2</c></rc>
    <rc><c>Se</c><c>   2</c></rc>
    <rc><c>Se</c><c>   2</c></rc>
    <rc><c>Se</c><c>   2</c></rc>
    <rc><c>Se</c><c>   2</c></rc>
    <rc><c>Se</c><c>   2</c></rc>
    <rc><c>Se</c><c>   2</c></rc>
    <rc><c>Se</c><c>   2</c></rc>
    <rc><c>Se</c><c>   2</c></rc>
    <rc><c>Se</c><c>   2</c></rc>
    <rc><c>Se</c><c>   2</c></rc>
    <rc><c>Se</c><c>   2</c></rc>
    <rc><c>Se</c><c>   2</c></rc>
    <rc><c>Se</c><c>   2</c></rc>
    <rc><c>Se</c><c>   2</c></rc>
    <rc><c>Se</c><c>   2</c></rc>
    <rc><c>Se</c><c>   2</c></rc>
    <rc><c>Se</c><c>   2</c></rc>
    <rc><c>Se</c><c>   2</c></rc>
    <rc><c>Se</c><c>   2</c></rc>
    <rc><c>Se</c><c>   2</c></rc>
    <rc><c>Se</c><c>   2</c></rc>
   </set>
  </array>
  <array name="atomtypes" >
   <dimension dim="1">type</dimension>
   <field type="int">atomspertype</field>
   <field type="string">element</field>
   <field>mass</field>
   <field>valence</field>
   <field type="string">pseudopotential</field>
   <set>
    <rc><c>  96</c><c>Ag</c><c>    107.86800000</c><c>     11.00000000</c><c>  PAW_PBE Ag 02Apr2005                  </c></rc>
    <rc><c>  48</c><c>Se</c><c>     78.96000000</c><c>      6.00000000</c><c>  PAW_PBE Se 06Sep2000                  </c></rc>
   </set>
  </array>
 </atominfo>
 <structure name="initialpos" >
  <crystal>
   <varray name="basis" >
    <v>      14.01039598       0.00139138       0.00000000 </v>
    <v>      -0.00150196      13.76691092       0.00000000 </v>
    <v>       0.00000000       0.00000000      14.55019386 </v>
   </varray>
   <i name="volume">   2806.43958022 </i>
   <varray name="rec_basis" >
    <v>       0.07137557       0.00000779       0.00000000 </v>
    <v>      -0.00000721       0.07263794       0.00000000 </v>
    <v>       0.00000000       0.00000000       0.06872761 </v>
   </varray>
  </crystal>
  <varray name="positions" >
   <v>       0.43059274       0.17167077       0.33247735 </v>
   <v>       0.92987898       0.17167077       0.33247735 </v>
   <v>       0.42987898       0.67167077       0.33247735 </v>
   <v>       0.92987898       0.67167077       0.33247735 </v>
   <v>       0.42987898       0.17167077       0.66581068 </v>
   <v>       0.92987898       0.17167077       0.66581068 </v>
   <v>       0.42987898       0.67167077       0.66581068 </v>
   <v>       0.92987898       0.67167077       0.66581068 </v>
   <v>       0.42987898       0.17167077       0.99914401 </v>
   <v>       0.92987898       0.17167077       0.99914401 </v>
   <v>       0.42987898       0.67167077       0.99914401 </v>
   <v>       0.92987898       0.67167077       0.99914401 </v>
   <v>       0.07012102       0.32832923       0.33247735 </v>
   <v>       0.57012102       0.32832923       0.33247735 </v>
   <v>       0.07012102       0.82832923       0.33247735 </v>
   <v>       0.57012102       0.82832923       0.33247735 </v>
   <v>       0.07012102       0.32832923       0.66581068 </v>
   <v>       0.57012102       0.32832923       0.66581068 </v>
   <v>       0.07012102       0.82832923       0.66581068 </v>
   <v>       0.57012102       0.82832923       0.66581068 </v>
   <v>       0.07012102       0.32832923       0.99914401 </v>
   <v>       0.57012102       0.32832923       0.99914401 </v>
   <v>       0.07012102       0.82832923       0.99914401 </v>
   <v>       0.57012102       0.82832923       0.99914401 </v>
   <v>       0.32012053       0.42167367       0.05641075 </v>
   <v>       0.82012053       0.42167367       0.05641075 </v>
   <v>       0.32012053       0.92167367       0.05641075 </v>
   <v>       0.82012053       0.92167367       0.05641075 </v>
   <v>       0.32012053       0.42167367       0.38974408 </v>
   <v>       0.82012053       0.42167367       0.38974408 </v>
   <v>       0.32012053       0.92167367       0.38974408 </v>
   <v>       0.82012053       0.92167367       0.38974408 </v>
   <v>       0.32012053       0.42167367       0.72307741 </v>
   <v>       0.82012053       0.42167367       0.72307741 </v>
   <v>       0.32012053       0.92167367       0.72307741 </v>
   <v>       0.82012053       0.92167367       0.72307741 </v>
   <v>       0.17987947       0.07832633       0.05641075 </v>
   <v>       0.67987947       0.07832633       0.05641075 </v>
   <v>       0.17987947       0.57832633       0.05641075 </v>
   <v>       0.67987947       0.57832633       0.05641075 </v>
   <v>       0.17987947       0.07832633       0.38974408 </v>
   <v>       0.67987947       0.07832633       0.38974408 </v>
   <v>       0.17987947       0.57832633       0.38974408 </v>
   <v>       0.67987947       0.57832633       0.38974408 </v>
   <v>       0.17987947       0.07832633       0.72307741 </v>
   <v>       0.67987947       0.07832633       0.72307741 </v>
   <v>       0.17987947       0.57832633       0.72307741 </v>
   <v>       0.67987947       0.57832633       0.72307741 </v>
   <v>       0.17987776       0.32832369       0.16580856 </v>
   <v>       0.67987776       0.32832369       0.16580856 </v>
   <v>       0.17987776       0.82832369       0.16580856 </v>
   <v>       0.67987776       0.82832369       0.16580856 </v>
   <v>       0.17987776       0.32832369       0.49914189 </v>
   <v>       0.67987776       0.32832369       0.49914189 </v>
   <v>       0.17987776       0.82832369       0.49914189 </v>
   <v>       0.67987776       0.82832369       0.49914189 </v>
   <v>       0.17987776       0.32832369       0.83247522 </v>
   <v>       0.67987776       0.32832369       0.83247522 </v>
   <v>       0.17987776       0.82832369       0.83247522 </v>
   <v>       0.67987776       0.82832369       0.83247522 </v>
   <v>       0.32012224       0.17167631       0.16580856 </v>
   <v>       0.82012224       0.17167631       0.16580856 </v>
   <v>       0.32012224       0.67167631       0.16580856 </v>
   <v>       0.82012224       0.67167631       0.16580856 </v>
   <v>       0.32012224       0.17167631       0.49914189 </v>
   <v>       0.82012224       0.17167631       0.49914189 </v>
   <v>       0.32012224       0.67167631       0.49914189 </v>
   <v>       0.82012224       0.67167631       0.49914189 </v>
   <v>       0.32012224       0.17167631       0.83247522 </v>
   <v>       0.82012224       0.17167631       0.83247522 </v>
   <v>       0.32012224       0.67167631       0.83247522 </v>
   <v>       0.82012224       0.67167631       0.83247522 </v>
   <v>       0.42987656       0.42167494       0.22308000 </v>
   <v>       0.92987656       0.42167494       0.22308000 </v>
   <v>       0.42987656       0.92167494       0.22308000 </v>
   <v>       0.92987656       0.92167494       0.22308000 </v>
   <v>       0.42987656       0.42167494       0.55641333 </v>
   <v>       0.92987656       0.42167494       0.55641333 </v>
   <v>       0.42987656       0.92167494       0.55641333 </v>
   <v>       0.92987656       0.92167494       0.55641333 </v>
   <v>       0.42987656       0.42167494       0.88974666 </v>
   <v>       0.92987656       0.42167494       0.88974666 </v>
   <v>       0.42987656       0.92167494       0.88974666 </v>
   <v>       0.92987656       0.92167494       0.88974666 </v>
   <v>       0.07012344       0.07832506       0.22308000 </v>
   <v>       0.57012344       0.07832506       0.22308000 </v>
   <v>       0.07012344       0.57832506       0.22308000 </v>
   <v>       0.57012344       0.57832506       0.22308000 </v>
   <v>       0.07012344       0.07832506       0.55641333 </v>
   <v>       0.57012344       0.07832506       0.55641333 </v>
   <v>       0.07012344       0.57832506       0.55641333 </v>
   <v>       0.57012344       0.57832506       0.55641333 </v>
   <v>       0.07012344       0.07832506       0.88974666 </v>
   <v>       0.57012344       0.07832506       0.88974666 </v>
   <v>       0.07012344       0.57832506       0.88974666 </v>
   <v>       0.57012344       0.57832506       0.88974666 </v>
   <v>       0.00000000       0.00000000       0.05479365 </v>
   <v>       0.50000000       0.00000000       0.05479365 </v>
   <v>       0.00000000       0.50000000       0.05479365 </v>
   <v>       0.50000000       0.50000000       0.05479365 </v>
   <v>       0.00000000       0.00000000       0.38812698 </v>
   <v>       0.50000000       0.00000000       0.38812698 </v>
   <v>       0.00000000       0.50000000       0.38812698 </v>
   <v>       0.50000000       0.50000000       0.38812698 </v>
   <v>       0.00000000       0.00000000       0.72146032 </v>
   <v>       0.50000000       0.00000000       0.72146032 </v>
   <v>       0.00000000       0.50000000       0.72146032 </v>
   <v>       0.50000000       0.50000000       0.72146032 </v>
   <v>       0.25000000       0.00000000       0.22145206 </v>
   <v>       0.75000000       0.00000000       0.22145206 </v>
   <v>       0.25000000       0.50000000       0.22145206 </v>
   <v>       0.75000000       0.50000000       0.22145206 </v>
   <v>       0.25000000       0.00000000       0.55478539 </v>
   <v>       0.75000000       0.00000000       0.55478539 </v>
   <v>       0.25000000       0.50000000       0.55478539 </v>
   <v>       0.75000000       0.50000000       0.55478539 </v>
   <v>       0.25000000       0.00000000       0.88811873 </v>
   <v>       0.75000000       0.00000000       0.88811873 </v>
   <v>       0.25000000       0.50000000       0.88811873 </v>
   <v>       0.75000000       0.50000000       0.88811873 </v>
   <v>       0.00000000       0.25000000       0.16743769 </v>
   <v>       0.50000000       0.25000000       0.16743769 </v>
   <v>       0.00000000       0.75000000       0.16743769 </v>
   <v>       0.50000000       0.75000000       0.16743769 </v>
   <v>       0.00000000       0.25000000       0.50077102 </v>
   <v>       0.50000000       0.25000000       0.50077102 </v>
   <v>       0.00000000       0.75000000       0.50077102 </v>
   <v>       0.50000000       0.75000000       0.50077102 </v>
   <v>       0.00000000       0.25000000       0.83410435 </v>
   <v>       0.50000000       0.25000000       0.83410435 </v>
   <v>       0.00000000       0.75000000       0.83410435 </v>
   <v>       0.50000000       0.75000000       0.83410435 </v>
   <v>       0.25000000       0.25000000       0.00076332 </v>
   <v>       0.75000000       0.25000000       0.00076332 </v>
   <v>       0.25000000       0.75000000       0.00076332 </v>
   <v>       0.75000000       0.75000000       0.00076332 </v>
   <v>       0.25000000       0.25000000       0.33409665 </v>
   <v>       0.75000000       0.25000000       0.33409665 </v>
   <v>       0.25000000       0.75000000       0.33409665 </v>
   <v>       0.75000000       0.75000000       0.33409665 </v>
   <v>       0.25000000       0.25000000       0.66742999 </v>
   <v>       0.75000000       0.25000000       0.66742999 </v>
   <v>       0.25000000       0.75000000       0.66742999 </v>
   <v>       0.75000000       0.75000000       0.66742999 </v>
  </varray>
 </structure>
 <calculation>
  <scstep>
   <time name="dav">  857.42  859.62</time>
   <time name="total">  860.87  863.10</time>
   <energy>
    <i name="alphaZ">   4890.97834259 </i>
    <i name="ewald"> -98842.96534000 </i>
    <i name="hartreedc"> -25789.29880989 </i>
    <i name="XCdc">   -889.86125327 </i>
    <i name="pawpsdc"> 106286.73805879 </i>
    <i name="pawaedc">-101298.59693205 </i>
    <i name="eentropy">     -0.04307176 </i>
    <i name="bandstr">  14366.14358560 </i>
    <i name="atom"> 111881.97810035 </i>
    <i name="e_fr_energy">  10605.07268035 </i>
    <i name="e_wo_entrp">  10605.11575211 </i>
    <i name="e_0_energy">  10605.09421623 </i>
   </energy>
  </scstep>
  <scstep>
   <time name="dav">  886.77  888.95</time>
   <time name="total">  886.77  888.96</time>
   <energy>
    <i name="e_fr_energy">    151.06599881 </i>
    <i name="e_wo_entrp">    151.07845094 </i>
    <i name="e_0_energy">    151.07222488 </i>
   </energy>
  </scstep>
  <scstep>
   <time name="dav">  936.00  938.37</time>
   <time name="total">  936.01  938.38</time>
   <energy>
    <i name="e_fr_energy">   -517.97641522 </i>
    <i name="e_wo_entrp">   -517.97030910 </i>
    <i name="e_0_energy">   -517.97336216 </i>
   </energy>
  </scstep>
  <scstep>
   <time name="dav">  909.59  911.91</time>
   <time name="total">  909.60  911.92</time>
   <energy>
    <i name="e_fr_energy">   -535.41827212 </i>
    <i name="e_wo_entrp">   -535.41281111 </i>
    <i name="e_0_energy">   -535.41554161 </i>
   </energy>
  </scstep>
  <scstep>
   <time name="dav">  929.00  931.25</time>
   <time name="total">  944.16  946.46</time>
   <energy>
    <i name="e_fr_energy">   -535.67133883 </i>
    <i name="e_wo_entrp">   -535.66586974 </i>
    <i name="e_0_energy">   -535.66860429 </i>
   </energy>
  </scstep>
  <scstep>
   <time name="dav">  898.31  900.46</time>
   <time name="total">  917.45  919.75</time>
   <energy>
    <i name="e_fr_energy">   -504.98468906 </i>
    <i name="e_wo_entrp">   -504.96919883 </i>
    <i name="e_0_energy">   -504.97694395 </i>
   </energy>
  </scstep>
  <scstep>
   <time name="dav">  890.79  893.30</time>
   <time name="total">  910.21  912.77</time>
   <energy>
    <i name="e_fr_energy">   -505.65728639 </i>
    <i name="e_wo_entrp">   -505.64152380 </i>
    <i name="e_0_energy">   -505.64940510 </i>
   </energy>
  </scstep>
  <scstep>
   <time name="dav">  913.19  915.73</time>
   <time name="total">  932.37  934.97</time>
   <energy>
    <i name="e_fr_energy">   -505.18195738 </i>
    <i name="e_wo_entrp">   -505.16734070 </i>
    <i name="e_0_energy">   -505.17464904 </i>
   </energy>
  </scstep>
  <scstep>
   <time name="dav">  892.52  895.04</time>
   <time name="total">  912.04  914.62</time>
   <energy>
    <i name="e_fr_energy">   -505.12628196 </i>
    <i name="e_wo_entrp">   -505.11105331 </i>
    <i name="e_0_energy">   -505.11866764 </i>
   </energy>
  </scstep>
  <scstep>
   <time name="dav">  898.12  900.39</time>
   <time name="total">  915.96  918.29</time>
   <energy>
    <i name="e_fr_energy">   -505.12841499 </i>
    <i name="e_wo_entrp">   -505.11312855 </i>
    <i name="e_0_energy">   -505.12077177 </i>
   </energy>
  </scstep>
  <scstep>
   <time name="dav">  911.00  913.28</time>
   <time name="total">  929.51  931.85</time>
   <energy>
    <i name="e_fr_energy">   -505.12828956 </i>
    <i name="e_wo_entrp">   -505.11307132 </i>
    <i name="e_0_energy">   -505.12068044 </i>
   </energy>
  </scstep>
  <scstep>
   <time name="dav">  899.45  901.72</time>
   <time name="total">  917.32  919.63</time>
   <energy>
    <i name="e_fr_energy">   -505.12824752 </i>
    <i name="e_wo_entrp">   -505.11300902 </i>
    <i name="e_0_energy">   -505.12062827 </i>
   </energy>
  </scstep>
  <scstep>
   <time name="dav">  947.62  950.16</time>
   <time name="total">  965.42  968.00</time>
   <energy>
    <i name="e_fr_energy">   -505.12824754 </i>
    <i name="e_wo_entrp">   -505.11301198 </i>
    <i name="e_0_energy">   -505.12062976 </i>
   </energy>
  </scstep>
  <scstep>
   <time name="dav">  892.24  894.52</time>
   <time name="total">  909.99  912.32</time>
   <energy>
    <i name="e_fr_energy">   -505.12824640 </i>
    <i name="e_wo_entrp">   -505.11301193 </i>
    <i name="e_0_energy">   -505.12062916 </i>
   </energy>
  </scstep>
  <scstep>
   <time name="dav">  919.03  921.35</time>
   <time name="total">  936.23  938.60</time>
   <energy>
    <i name="e_fr_energy">   -505.12824488 </i>
    <i name="e_wo_entrp">   -505.11301064 </i>
    <i name="e_0_energy">   -505.12062776 </i>
   </energy>
  </scstep>
  <scstep>
   <time name="dav">  843.26  845.37</time>
   <time name="total">  860.77  862.92</time>
   <energy>
    <i name="e_fr_energy">   -505.12824490 </i>
    <i name="e_wo_entrp">   -505.11301084 </i>
    <i name="e_0_energy">   -505.12062787 </i>
   </energy>
  </scstep>
  <scstep>
   <time name="dav">  560.90  562.29</time>
   <time name="total">  578.16  579.59</time>
   <energy>
    <i name="e_fr_energy">   -505.12824492 </i>
    <i name="e_wo_entrp">   -505.11301079 </i>
    <i name="e_0_energy">   -505.12062786 </i>
   </energy>
  </scstep>
  <scstep>
   <time name="dav">  543.53  544.89</time>
   <time name="total">  560.94  562.34</time>
   <energy>
    <i name="e_fr_energy">   -505.12824491 </i>
    <i name="e_wo_entrp">   -505.11301075 </i>
    <i name="e_0_energy">   -505.12062783 </i>
   </energy>
  </scstep>
  <scstep>
   <time name="dav">  541.79  543.13</time>
   <time name="total">  545.10  546.45</time>
   <energy>
    <i name="alphaZ">   4890.97834259 </i>
    <i name="ewald"> -98842.96534000 </i>
    <i name="hartreedc"> -24658.12386776 </i>
    <i name="XCdc">   -922.44779930 </i>
    <i name="pawpsdc"> 122252.83266100 </i>
    <i name="pawaedc">-117445.09486005 </i>
    <i name="eentropy">     -0.01523417 </i>
    <i name="bandstr">   2337.72975242 </i>
    <i name="atom"> 111881.97810035 </i>
    <i name="e_fr_energy">   -505.12824490 </i>
    <i name="e_wo_entrp">   -505.11301074 </i>
    <i name="e_0_energy">   -505.12062782 </i>
   </energy>
  </scstep>
  <structure>
   <crystal>
    <varray name="basis" >
     <v>      14.01039598       0.00139138       0.00000000 </v>
     <v>      -0.00150196      13.76691092       0.00000000 </v>
     <v>       0.00000000       0.00000000      14.55019386 </v>
    </varray>
    <i name="volume">   2806.43958022 </i>
    <varray name="rec_basis" >
     <v>       0.07137557       0.00000779       0.00000000 </v>
     <v>      -0.00000721       0.07263794       0.00000000 </v>
     <v>       0.00000000       0.00000000       0.06872761 </v>
    </varray>
   </crystal>
   <varray name="positions" >
    <v>       0.43059274       0.17167077       0.33247735 </v>
    <v>       0.92987898       0.17167077       0.33247735 </v>
    <v>       0.42987898       0.67167077       0.33247735 </v>
    <v>       0.92987898       0.67167077       0.33247735 </v>
    <v>       0.42987898       0.17167077       0.66581068 </v>
    <v>       0.92987898       0.17167077       0.66581068 </v>
    <v>       0.42987898       0.67167077       0.66581068 </v>
    <v>       0.92987898       0.67167077       0.66581068 </v>
    <v>       0.42987898       0.17167077       0.99914401 </v>
    <v>       0.92987898       0.17167077       0.99914401 </v>
    <v>       0.42987898       0.67167077       0.99914401 </v>
    <v>       0.92987898       0.67167077       0.99914401 </v>
    <v>       0.07012102       0.32832923       0.33247735 </v>
    <v>       0.57012102       0.32832923       0.33247735 </v>
    <v>       0.07012102       0.82832923       0.33247735 </v>
    <v>       0.57012102       0.82832923       0.33247735 </v>
    <v>       0.07012102       0.32832923       0.66581068 </v>
    <v>       0.57012102       0.32832923       0.66581068 </v>
    <v>       0.07012102       0.82832923       0.66581068 </v>
    <v>       0.57012102       0.82832923       0.66581068 </v>
    <v>       0.07012102       0.32832923       0.99914401 </v>
    <v>       0.57012102       0.32832923       0.99914401 </v>
    <v>       0.07012102       0.82832923       0.99914401 </v>
    <v>       0.57012102       0.82832923       0.99914401 </v>
    <v>       0.32012053       0.42167367       0.05641075 </v>
    <v>       0.82012053       0.42167367       0.05641075 </v>
    <v>       0.32012053       0.92167367       0.05641075 </v>
    <v>       0.82012053       0.92167367       0.05641075 </v>
    <v>       0.32012053       0.42167367       0.38974408 </v>
    <v>       0.82012053       0.42167367       0.38974408 </v>
    <v>       0.32012053       0.92167367       0.38974408 </v>
    <v>       0.82012053       0.92167367       0.38974408 </v>
    <v>       0.32012053       0.42167367       0.72307741 </v>
    <v>       0.82012053       0.42167367       0.72307741 </v>
    <v>       0.32012053       0.92167367       0.72307741 </v>
    <v>       0.82012053       0.92167367       0.72307741 </v>
    <v>       0.17987947       0.07832633       0.05641075 </v>
    <v>       0.67987947       0.07832633       0.05641075 </v>
    <v>       0.17987947       0.57832633       0.05641075 </v>
    <v>       0.67987947       0.57832633       0.05641075 </v>
    <v>       0.17987947       0.07832633       0.38974408 </v>
    <v>       0.67987947       0.07832633       0.38974408 </v>
    <v>       0.17987947       0.57832633       0.38974408 </v>
    <v>       0.67987947       0.57832633       0.38974408 </v>
    <v>       0.17987947       0.07832633       0.72307741 </v>
    <v>       0.67987947       0.07832633       0.72307741 </v>
    <v>       0.17987947       0.57832633       0.72307741 </v>
    <v>       0.67987947       0.57832633       0.72307741 </v>
    <v>       0.17987776       0.32832369       0.16580856 </v>
    <v>       0.67987776       0.32832369       0.16580856 </v>
    <v>       0.17987776       0.82832369       0.16580856 </v>
    <v>       0.67987776       0.82832369       0.16580856 </v>
    <v>       0.17987776       0.32832369       0.49914189 </v>
    <v>       0.67987776       0.32832369       0.49914189 </v>
    <v>       0.17987776       0.82832369       0.49914189 </v>
    <v>       0.67987776       0.82832369       0.49914189 </v>
    <v>       0.17987776       0.32832369       0.83247522 </v>
    <v>       0.67987776       0.32832369       0.83247522 </v>
    <v>       0.17987776       0.82832369       0.83247522 </v>
    <v>       0.67987776       0.82832369       0.83247522 </v>
    <v>       0.32012224       0.17167631       0.16580856 </v>
    <v>       0.82012224       0.17167631       0.16580856 </v>
    <v>       0.32012224       0.67167631       0.16580856 </v>
    <v>       0.82012224       0.67167631       0.16580856 </v>
    <v>       0.32012224       0.17167631       0.49914189 </v>
    <v>       0.82012224       0.17167631       0.49914189 </v>
    <v>       0.32012224       0.67167631       0.49914189 </v>
    <v>       0.82012224       0.67167631       0.49914189 </v>
    <v>       0.32012224       0.17167631       0.83247522 </v>
    <v>       0.82012224       0.17167631       0.83247522 </v>
    <v>       0.32012224       0.67167631       0.83247522 </v>
    <v>       0.82012224       0.67167631       0.83247522 </v>
    <v>       0.42987656       0.42167494       0.22308000 </v>
    <v>       0.92987656       0.42167494       0.22308000 </v>
    <v>       0.42987656       0.92167494       0.22308000 </v>
    <v>       0.92987656       0.92167494       0.22308000 </v>
    <v>       0.42987656       0.42167494       0.55641333 </v>
    <v>       0.92987656       0.42167494       0.55641333 </v>
    <v>       0.42987656       0.92167494       0.55641333 </v>
    <v>       0.92987656       0.92167494       0.55641333 </v>
    <v>       0.42987656       0.42167494       0.88974666 </v>
    <v>       0.92987656       0.42167494       0.88974666 </v>
    <v>       0.42987656       0.92167494       0.88974666 </v>
    <v>       0.92987656       0.92167494       0.88974666 </v>
    <v>       0.07012344       0.07832506       0.22308000 </v>
    <v>       0.57012344       0.07832506       0.22308000 </v>
    <v>       0.07012344       0.57832506       0.22308000 </v>
    <v>       0.57012344       0.57832506       0.22308000 </v>
    <v>       0.07012344       0.07832506       0.55641333 </v>
    <v>       0.57012344       0.07832506       0.55641333 </v>
    <v>       0.07012344       0.57832506       0.55641333 </v>
    <v>       0.57012344       0.57832506       0.55641333 </v>
    <v>       0.07012344       0.07832506       0.88974666 </v>
    <v>       0.57012344       0.07832506       0.88974666 </v>
    <v>       0.07012344       0.57832506       0.88974666 </v>
    <v>       0.57012344       0.57832506       0.88974666 </v>
    <v>       0.00000000       0.00000000       0.05479365 </v>
    <v>       0.50000000       0.00000000       0.05479365 </v>
    <v>       0.00000000       0.50000000       0.05479365 </v>
    <v>       0.50000000       0.50000000       0.05479365 </v>
    <v>       0.00000000       0.00000000       0.38812698 </v>
    <v>       0.50000000       0.00000000       0.38812698 </v>
    <v>       0.00000000       0.50000000       0.38812698 </v>
    <v>       0.50000000       0.50000000       0.38812698 </v>
    <v>       0.00000000       0.00000000       0.72146032 </v>
    <v>       0.50000000       0.00000000       0.72146032 </v>
    <v>       0.00000000       0.50000000       0.72146032 </v>
    <v>       0.50000000       0.50000000       0.72146032 </v>
    <v>       0.25000000       0.00000000       0.22145206 </v>
    <v>       0.75000000       0.00000000       0.22145206 </v>
    <v>       0.25000000       0.50000000       0.22145206 </v>
    <v>       0.75000000       0.50000000       0.22145206 </v>
    <v>       0.25000000       0.00000000       0.55478539 </v>
    <v>       0.75000000       0.00000000       0.55478539 </v>
    <v>       0.25000000       0.50000000       0.55478539 </v>
    <v>       0.75000000       0.50000000       0.55478539 </v>
    <v>       0.25000000       0.00000000       0.88811873 </v>
    <v>       0.75000000       0.00000000       0.88811873 </v>
    <v>       0.25000000       0.50000000       0.88811873 </v>
    <v>       0.75000000       0.50000000       0.88811873 </v>
    <v>       0.00000000       0.25000000       0.16743769 </v>
    <v>       0.50000000       0.25000000       0.16743769 </v>
    <v>       0.00000000       0.75000000       0.16743769 </v>
    <v>       0.50000000       0.75000000       0.16743769 </v>
    <v>       0.00000000       0.25000000       0.50077102 </v>
    <v>       0.50000000       0.25000000       0.50077102 </v>
    <v>       0.00000000       0.75000000       0.50077102 </v>
    <v>       0.50000000       0.75000000       0.50077102 </v>
    <v>       0.00000000       0.25000000       0.83410435 </v>
    <v>       0.50000000       0.25000000       0.83410435 </v>
    <v>       0.00000000       0.75000000       0.83410435 </v>
    <v>       0.50000000       0.75000000       0.83410435 </v>
    <v>       0.25000000       0.25000000       0.00076332 </v>
    <v>       0.75000000       0.25000000       0.00076332 </v>
    <v>       0.25000000       0.75000000       0.00076332 </v>
    <v>       0.75000000       0.75000000       0.00076332 </v>
    <v>       0.25000000       0.25000000       0.33409665 </v>
    <v>       0.75000000       0.25000000       0.33409665 </v>
    <v>       0.25000000       0.75000000       0.33409665 </v>
    <v>       0.75000000       0.75000000       0.33409665 </v>
    <v>       0.25000000       0.25000000       0.66742999 </v>
    <v>       0.75000000       0.25000000       0.66742999 </v>
    <v>       0.25000000       0.75000000       0.66742999 </v>
    <v>       0.75000000       0.75000000       0.66742999 </v>
   </varray>
  </structure>
  <varray name="forces" >
   <v>      -0.03271505       0.01088765       0.00205365 </v>
   <v>       0.00017831       0.00013441      -0.00004298 </v>
   <v>      -0.00004831       0.00011613      -0.00009502 </v>
   <v>       0.00001685       0.00000958      -0.00001479 </v>
   <v>      -0.00039082      -0.00023750       0.00009086 </v>
   <v>       0.00013634       0.00011369      -0.00017616 </v>
   <v>      -0.00005305       0.00011226      -0.00002494 </v>
   <v>       0.00000546       0.00007648      -0.00004250 </v>
   <v>      -0.00039065      -0.00025975      -0.00020779 </v>
   <v>       0.00013629       0.00012693       0.00006759 </v>
   <v>      -0.00005290       0.00015831      -0.00007798 </v>
   <v>       0.00000542       0.00006957      -0.00002077 </v>
   <v>       0.00249910      -0.00066829       0.00007883 </v>
   <v>       0.00496075       0.00606761       0.00020304 </v>
   <v>       0.00003977      -0.00004964       0.00000229 </v>
   <v>       0.00028932      -0.00041696      -0.00019961 </v>
   <v>       0.00010622      -0.00007287      -0.00013551 </v>
   <v>       0.00052097       0.00041383       0.00062947 </v>
   <v>       0.00003258      -0.00006034      -0.00002394 </v>
   <v>       0.00000627      -0.00003167      -0.00003587 </v>
   <v>       0.00010617      -0.00008384       0.00005135 </v>
   <v>       0.00052008       0.00047662      -0.00076990 </v>
   <v>       0.00003246      -0.00005844      -0.00002463 </v>
   <v>       0.00000615      -0.00008850      -0.00002786 </v>
   <v>      -0.00007461       0.00001207       0.00006567 </v>
   <v>       0.00008305       0.00005081       0.00006587 </v>
   <v>      -0.00007558       0.00004396       0.00011873 </v>
   <v>       0.00008312      -0.00000701       0.00001499 </v>
   <v>      -0.00011827      -0.00085596      -0.00028679 </v>
   <v>       0.00013814       0.00004569       0.00001345 </v>
   <v>      -0.00011874       0.00013940       0.00001356 </v>
   <v>       0.00013791      -0.00002668       0.00007003 </v>
   <v>      -0.00002069      -0.00000637      -0.00002591 </v>
   <v>       0.00007607       0.00005755       0.00005219 </v>
   <v>      -0.00002074       0.00001606       0.00004114 </v>
   <v>       0.00007629      -0.00000776       0.00007882 </v>
   <v>       0.00001288       0.00000532       0.00004745 </v>
   <v>       0.00001408      -0.00002257       0.00000199 </v>
   <v>       0.00002637      -0.00005976       0.00010311 </v>
   <v>       0.00002650      -0.00001726       0.00004592 </v>
   <v>       0.00050966       0.00096782      -0.00020831 </v>
   <v>       0.00051064       0.00003751       0.00014979 </v>
   <v>      -0.00000979      -0.00008993       0.00002728 </v>
   <v>      -0.00000952      -0.00000359       0.00006643 </v>
   <v>       0.00002733      -0.00001046       0.00002244 </v>
   <v>       0.00002726      -0.00002093       0.00006427 </v>
   <v>       0.00003267      -0.00007113       0.00001501 </v>
   <v>       0.00003288      -0.00003783       0.00002528 </v>
   <v>       0.00040039      -0.00041264       0.00050199 </v>
   <v>       0.00043779       0.00001281      -0.00013881 </v>
   <v>       0.00004061       0.00008208       0.00001957 </v>
   <v>       0.00003077      -0.00005744      -0.00002515 </v>
   <v>       0.00043530      -0.00033803      -0.00087298 </v>
   <v>       0.00040229       0.00007400       0.00016622 </v>
   <v>       0.00003062       0.00002752      -0.00003192 </v>
   <v>       0.00004105      -0.00006233       0.00000292 </v>
   <v>       0.00012921      -0.00011619      -0.00002940 </v>
   <v>       0.00013018      -0.00001411      -0.00002054 </v>
   <v>       0.00001856      -0.00002206      -0.00001015 </v>
   <v>       0.00001861      -0.00000252      -0.00001308 </v>
   <v>       0.00238139       0.00040017       0.00770751 </v>
   <v>       0.00024266       0.00006018      -0.00004739 </v>
   <v>      -0.00005952      -0.00013785       0.00003921 </v>
   <v>       0.00004882       0.00002325      -0.00002204 </v>
   <v>       0.00238271       0.00060704      -0.00771922 </v>
   <v>       0.00024273       0.00001597       0.00008492 </v>
   <v>      -0.00005995      -0.00005053      -0.00000761 </v>
   <v>       0.00004882       0.00000611      -0.00001263 </v>
   <v>      -0.00014079       0.00006607      -0.00000072 </v>
   <v>       0.00007995      -0.00001488      -0.00000540 </v>
   <v>      -0.00003118       0.00000649      -0.00000151 </v>
   <v>       0.00003573       0.00001621      -0.00001724 </v>
   <v>      -0.00043935       0.00022841       0.00005522 </v>
   <v>       0.00015876      -0.00012000       0.00011345 </v>
   <v>      -0.00043911      -0.00012785      -0.00010105 </v>
   <v>       0.00015854       0.00000002       0.00004016 </v>
   <v>      -0.00009471       0.00037755       0.00006701 </v>
   <v>       0.00010537      -0.00005454       0.00000509 </v>
   <v>      -0.00009442      -0.00008014       0.00016069 </v>
   <v>       0.00010591       0.00003181       0.00000033 </v>
   <v>      -0.00001414       0.00003405       0.00003803 </v>
   <v>       0.00006305       0.00001477       0.00000470 </v>
   <v>      -0.00001447      -0.00000312      -0.00001777 </v>
   <v>       0.00006302       0.00001879       0.00000413 </v>
   <v>       0.00001601       0.00008453       0.00002442 </v>
   <v>       0.00830653      -0.00584078      -0.00705216 </v>
   <v>       0.00009092      -0.00009939       0.00005060 </v>
   <v>      -0.00002465      -0.00000201       0.00000823 </v>
   <v>       0.00010463       0.00004562      -0.00005805 </v>
   <v>       0.00056996      -0.00050566       0.00086425 </v>
   <v>       0.00005134      -0.00002426      -0.00000536 </v>
   <v>       0.00009403      -0.00004603       0.00001369 </v>
   <v>       0.00001699      -0.00001844       0.00003980 </v>
   <v>       0.00002501      -0.00004565       0.00000067 </v>
   <v>       0.00002210      -0.00001862       0.00002647 </v>
   <v>      -0.00000239       0.00000255       0.00002316 </v>
   <v>      -0.00004852      -0.00012183      -0.00006483 </v>
   <v>       0.00017191       0.00005104      -0.00010613 </v>
   <v>      -0.00008161      -0.00004837      -0.00013575 </v>
   <v>       0.00012918      -0.00041148      -0.00000406 </v>
   <v>      -0.00016178      -0.00008281      -0.00010203 </v>
   <v>       0.00117118      -0.00978061       0.00449766 </v>
   <v>      -0.00030399       0.00002174      -0.00017524 </v>
   <v>       0.00008482      -0.00001102       0.00004950 </v>
   <v>      -0.00011351      -0.00007367      -0.00000678 </v>
   <v>       0.00002507      -0.00001999       0.00004853 </v>
   <v>      -0.00009799      -0.00004973      -0.00007291 </v>
   <v>      -0.00010336      -0.00015039      -0.00023476 </v>
   <v>       0.00053657       0.00055235       0.00029258 </v>
   <v>      -0.00020188       0.00013364      -0.00004732 </v>
   <v>       0.00003660       0.00060115      -0.00022963 </v>
   <v>      -0.00010078       0.00002057       0.00005508 </v>
   <v>       0.00008017       0.00029365      -0.00029557 </v>
   <v>      -0.00016582       0.00008391      -0.00002321 </v>
   <v>      -0.00010186       0.00019043       0.00021972 </v>
   <v>      -0.00010891       0.00000007       0.00008110 </v>
   <v>       0.00001352       0.00004899       0.00005860 </v>
   <v>      -0.00003780       0.00007182      -0.00000832 </v>
   <v>      -0.00004970       0.00012314       0.00003467 </v>
   <v>      -0.00009853       0.00005554       0.00002321 </v>
   <v>      -0.00077970      -0.00039817      -0.00039111 </v>
   <v>      -0.00154615       0.00224038      -0.00201556 </v>
   <v>      -0.00005289      -0.00001352      -0.00005134 </v>
   <v>      -0.00001064      -0.00001502      -0.00004952 </v>
   <v>      -0.00086046      -0.00029874       0.00032893 </v>
   <v>      -0.00053155       0.00045792       0.00163769 </v>
   <v>      -0.00000064      -0.00004106      -0.00000502 </v>
   <v>      -0.00000275       0.00026454      -0.00024065 </v>
   <v>      -0.00021372      -0.00010207      -0.00001638 </v>
   <v>      -0.00011579      -0.00010105      -0.00004198 </v>
   <v>      -0.00000230      -0.00005056      -0.00003372 </v>
   <v>       0.00004988      -0.00006506      -0.00000066 </v>
   <v>      -0.00005916       0.00016858      -0.00032384 </v>
   <v>      -0.00043459       0.00018907       0.00004521 </v>
   <v>      -0.00001544       0.00004259      -0.00002310 </v>
   <v>      -0.00006017       0.00004301       0.00007166 </v>
   <v>       0.01104348      -0.00564344       0.00070376 </v>
   <v>       0.00019928       0.00033439       0.00002686 </v>
   <v>       0.00002214       0.00007945       0.00014536 </v>
   <v>       0.00000177       0.00006070       0.00003332 </v>
   <v>      -0.00000664       0.00019986       0.00044014 </v>
   <v>      -0.00046696       0.00013107       0.00002072 </v>
   <v>      -0.00003043       0.00008099       0.00013144 </v>
   <v>      -0.00002991       0.00004283       0.00006216 </v>
  </varray>
  <varray name="stress" >
   <v>      -0.17204953       0.00552697      -0.00478128 </v>
   <v>       0.00552708      -0.13368908      -0.00118925 </v>
   <v>      -0.00478130      -0.00118909      -0.16029092 </v>
  </varray>
  <energy>
   <i name="e_fr_energy">   -505.12824490 </i>
   <i name="e_wo_entrp">   -505.12062782 </i>
   <i name="e_0_energy">     -0.01523417 </i>
  </energy>
  <time name="totalsc">18136.6418183.83</time>
  <eigenvalues>
   <array>
    <dimension dim="1">band</dimension>
    <dimension dim="2">kpoint</dimension>
    <dimension dim="3">spin</dimension>
    <field>eigene</field>
    <field>occ</field>
    <set>
     <set comment="spin 1">
      <set comment="kpoint 1">
       <r>   -7.4639    1.0000 </r>
       <r>   -7.2296    1.0000 </r>
       <r>   -7.2294    1.0000 </r>
       <r>   -7.2160    1.0000 </r>
       <r>   -7.2154    1.0000 </r>
       <r>   -7.1644    1.0000 </r>
       <r>   -7.1642    1.0000 </r>
       <r>   -7.0699    1.0000 </r>
       <r>   -7.0697    1.0000 </r>
       <r>   -7.0695    1.0000 </r>
       <r>   -7.0689    1.0000 </r>
       <r>   -7.0093    1.0000 </r>
       <r>   -7.0093    1.0000 </r>
       <r>   -7.0091    1.0000 </r>
       <r>   -7.0087    1.0000 </r>
       <r>   -6.9942    1.0000 </r>
       <r>   -6.9941    1.0000 </r>
       <r>   -6.9938    1.0000 </r>
       <r>   -6.9933    1.0000 </r>
       <r>   -6.9476    1.0000 </r>
       <r>   -6.9353    1.0000 </r>
       <r>   -6.9349    1.0000 </r>
       <r>   -6.9195    1.0000 </r>
       <r>   -6.9195    1.0000 </r>
       <r>   -6.9193    1.0000 </r>
       <r>   -6.9191    1.0000 </r>
       <r>   -6.9191    1.0000 </r>
       <r>   -6.9190    1.0000 </r>
       <r>   -6.9190    1.0000 </r>
       <r>   -6.9180    1.0000 </r>
       <r>   -6.8369    1.0000 </r>
       <r>   -6.8369    1.0000 </r>
       <r>   -6.8366    1.0000 </r>
       <r>   -6.8362    1.0000 </r>
       <r>   -6.8239    1.0000 </r>
       <r>   -6.8181    1.0000 </r>
       <r>   -6.8179    1.0000 </r>
       <r>   -6.7728    1.0000 </r>
       <r>   -6.7725    1.0000 </r>
       <r>   -6.7673    1.0000 </r>
       <r>   -6.7671    1.0000 </r>
       <r>   -6.7669    1.0000 </r>
       <r>   -6.7663    1.0000 </r>
       <r>   -6.7550    1.0000 </r>
       <r>   -6.7544    1.0000 </r>
       <r>   -6.7402    1.0000 </r>
       <r>   -6.7397    1.0000 </r>
       <r>   -6.6844    1.0000 </r>
       <r>   -0.3460    1.0000 </r>
       <r>    0.0940    1.0000 </r>
       <r>    0.0941    1.0000 </r>
       <r>    0.0941    1.0000 </r>
       <r>    0.0942    1.0000 </r>
       <r>    0.0942    1.0000 </r>
       <r>    0.0943    1.0000 </r>
       <r>    0.0945    1.0000 </r>
       <r>    0.0946    1.0000 </r>
       <r>    0.1077    1.0000 </r>
       <r>    0.1078    1.0000 </r>
       <r>    0.1079    1.0000 </r>
       <r>    0.1079    1.0000 </r>
       <r>    0.1520    1.0000 </r>
       <r>    0.1520    1.0000 </r>
       <r>    0.1523    1.0000 </r>
       <r>    0.1527    1.0000 </r>
       <r>    0.1579    1.0000 </r>
       <r>    0.1583    1.0000 </r>
       <r>    0.1593    1.0000 </r>
       <r>    0.1601    1.0000 </r>
       <r>    0.2007    1.0000 </r>
       <r>    0.2008    1.0000 </r>
       <r>    0.2010    1.0000 </r>
       <r>    0.2011    1.0000 </r>
       <r>    0.2366    1.0000 </r>
       <r>    0.2370    1.0000 </r>
       <r>    0.2568    1.0000 </r>
       <r>    0.2571    1.0000 </r>
       <r>    0.2822    1.0000 </r>
       <r>    0.3006    1.0000 </r>
       <r>    0.3009    1.0000 </r>
       <r>    0.3229    1.0000 </r>
       <r>    0.4471    1.0000 </r>
       <r>    0.4474    1.0000 </r>
       <r>    0.4508    1.0000 </r>
       <r>    0.4511    1.0000 </r>
       <r>    0.4572    1.0000 </r>
       <r>    0.4575    1.0000 </r>
       <r>    0.4652    1.0000 </r>
       <r>    0.4656    1.0000 </r>
       <r>    0.4657    1.0000 </r>
       <r>    0.4660    1.0000 </r>
       <r>    0.4696    1.0000 </r>
       <r>    0.4700    1.0000 </r>
       <r>    0.4703    1.0000 </r>
       <r>    0.4703    1.0000 </r>
       <r>    0.5111    1.0000 </r>
       <r>    0.5115    1.0000 </r>
       <r>    0.5260    1.0000 </r>
       <r>    0.5262    1.0000 </r>
       <r>    0.5264    1.0000 </r>
       <r>    0.5269    1.0000 </r>
       <r>    0.5970    1.0000 </r>
       <r>    0.6017    1.0000 </r>
       <r>    0.6548    1.0000 </r>
       <r>    0.6549    1.0000 </r>
       <r>    0.6552    1.0000 </r>
       <r>    0.6554    1.0000 </r>
       <r>    0.6614    1.0000 </r>
       <r>    0.6617    1.0000 </r>
       <r>    0.6876    1.0000 </r>
       <r>    0.6877    1.0000 </r>
       <r>    0.7016    1.0000 </r>
       <r>    0.7019    1.0000 </r>
       <r>    0.7019    1.0000 </r>
       <r>    0.7024    1.0000 </r>
       <r>    0.7203    1.0000 </r>
       <r>    0.7209    1.0000 </r>
       <r>    0.7408    1.0000 </r>
       <r>    0.7411    1.0000 </r>
       <r>    0.7484    1.0000 </r>
       <r>    0.8021    1.0000 </r>
       <r>    0.8141    1.0000 </r>
       <r>    0.8143    1.0000 </r>
       <r>    0.8146    1.0000 </r>
       <r>    0.8148    1.0000 </r>
       <r>    0.8299    1.0000 </r>
       <r>    0.8302    1.0000 </r>
       <r>    0.8304    1.0000 </r>
       <r>    0.8306    1.0000 </r>
       <r>    0.8515    1.0000 </r>
       <r>    0.8519    1.0000 </r>
       <r>    0.8519    1.0000 </r>
       <r>    0.8520    1.0000 </r>
       <r>    0.8520    1.0000 </r>
       <r>    0.8521    1.0000 </r>
       <r>    0.8524    1.0000 </r>
       <r>    0.8527    1.0000 </r>
       <r>    0.8949    1.0000 </r>
       <r>    0.8975    1.0000 </r>
       <r>    0.8978    1.0000 </r>
       <r>    0.8993    1.0000 </r>
       <r>    0.8994    1.0000 </r>
       <r>    0.8994    1.0000 </r>
       <r>    0.8998    1.0000 </r>
       <r>    0.9202    1.0000 </r>
       <r>    0.9456    1.0000 </r>
       <r>    0.9460    1.0000 </r>
       <r>    1.0707    1.0000 </r>
       <r>    1.0709    1.0000 </r>
       <r>    1.0710    1.0000 </r>
       <r>    1.0711    1.0000 </r>
       <r>    1.0845    1.0000 </r>
       <r>    1.0846    1.0000 </r>
       <r>    1.0847    1.0000 </r>
       <r>    1.0848    1.0000 </r>
       <r>    1.0850    1.0000 </r>
       <r>    1.0852    1.0000 </r>
       <r>    1.1009    1.0000 </r>
       <r>    1.1010    1.0000 </r>
       <r>    1.1457    1.0000 </r>
       <r>    1.1458    1.0000 </r>
       <r>    1.1459    1.0000 </r>
       <r>    1.1461    1.0000 </r>
       <r>    1.1616    1.0000 </r>
       <r>    1.1618    1.0000 </r>
       <r>    1.1619    1.0000 </r>
       <r>    1.1622    1.0000 </r>
       <r>    1.1756    1.0000 </r>
       <r>    1.1760    1.0000 </r>
       <r>    1.1996    1.0000 </r>
       <r>    1.2241    1.0000 </r>
       <r>    1.2244    1.0000 </r>
       <r>    1.2296    1.0000 </r>
       <r>    1.2298    1.0000 </r>
       <r>    1.2299    1.0000 </r>
       <r>    1.2299    1.0000 </r>
       <r>    1.2300    1.0000 </r>
       <r>    1.2300    1.0000 </r>
       <r>    1.2301    1.0000 </r>
       <r>    1.2304    1.0000 </r>
       <r>    1.2370    1.0000 </r>
       <r>    1.2370    1.0000 </r>
       <r>    1.3412    1.0000 </r>
       <r>    1.3414    1.0000 </r>
       <r>    1.3415    1.0000 </r>
       <r>    1.3416    1.0000 </r>
       <r>    1.3652    1.0000 </r>
       <r>    1.3664    1.0000 </r>
       <r>    1.3664    1.0000 </r>
       <r>    1.3671    1.0000 </r>
       <r>    1.3672    1.0000 </r>
       <r>    1.3733    1.0000 </r>
       <r>    1.3734    1.0000 </r>
       <r>    1.3735    1.0000 </r>
       <r>    1.3736    1.0000 </r>
[...]
       <r>    -1.7769     0.0000    96.0000 </r>
       <r>    -1.7053     0.0000    96.0000 </r>
       <r>    -1.6336     0.0000    96.0000 </r>
       <r>    -1.5620     0.0000    96.0000 </r>
       <r>    -1.4903     0.0000    96.0000 </r>
       <r>    -1.4187     0.0000    96.0000 </r>
       <r>    -1.3470     0.0000    96.0000 </r>
       <r>    -1.2753     0.0000    96.0000 </r>
       <r>    -1.2037     0.0000    96.0000 </r>
       <r>    -1.1320     0.0000    96.0000 </r>
       <r>    -1.0604     0.0000    96.0000 </r>
       <r>    -0.9887     0.0000    96.0000 </r>
       <r>    -0.9171     0.0000    96.0000 </r>
       <r>    -0.8454     0.0000    96.0000 </r>
       <r>    -0.7737     0.0000    96.0000 </r>
       <r>    -0.7021     0.0000    96.0000 </r>
       <r>    -0.6304     0.0000    96.0000 </r>
       <r>    -0.5588     0.0000    96.0000 </r>
       <r>    -0.4871     0.0001    96.0000 </r>
       <r>    -0.4155     0.0862    96.0062 </r>
       <r>    -0.3438     1.7449    96.1312 </r>
       <r>    -0.2721     1.8808    96.2660 </r>
       <r>    -0.2005     8.2148    96.8546 </r>
       <r>    -0.1288    15.3930    97.9577 </r>
       <r>    -0.0572    24.0698    99.6824 </r>
       <r>     0.0145    51.0648   103.3416 </r>
       <r>     0.0861   101.9505   110.6470 </r>
       <r>     0.1578   188.5012   124.1544 </r>
       <r>     0.2295   205.2819   138.8642 </r>
       <r>     0.3011   274.2647   158.5172 </r>
       <r>     0.3728   193.9259   172.4133 </r>
       <r>     0.4444   125.1037   181.3778 </r>
       <r>     0.5161   140.8119   191.4679 </r>
       <r>     0.5877   124.2078   200.3683 </r>
       <r>     0.6594   165.8945   212.2558 </r>
       <r>     0.7311   245.1214   229.8204 </r>
       <r>     0.8027   229.2242   246.2458 </r>
       <r>     0.8744   291.2609   267.1167 </r>
       <r>     0.9460   285.4260   287.5694 </r>
       <r>     1.0177   146.7954   298.0883 </r>
       <r>     1.0893   183.5593   311.2415 </r>
       <r>     1.1610   226.6959   327.4858 </r>
       <r>     1.2327   229.3769   343.9223 </r>
       <r>     1.3043   298.0189   365.2773 </r>
       <r>     1.3760   306.4954   387.2398 </r>
       <r>     1.4476   391.3487   415.2826 </r>
       <r>     1.5193   355.4547   440.7534 </r>
       <r>     1.5909   372.8489   467.4705 </r>
       <r>     1.6626   365.4393   493.6567 </r>
       <r>     1.7342   391.3592   521.7003 </r>
       <r>     1.8059   372.3873   548.3844 </r>
       <r>     1.8776   358.0522   574.0413 </r>
       <r>     1.9492   388.8280   601.9034 </r>
       <r>     2.0209   414.6140   631.6134 </r>
       <r>     2.0925   378.6190   658.7440 </r>
       <r>     2.1642   361.1470   684.6226 </r>
       <r>     2.2358   374.9976   711.4937 </r>
       <r>     2.3075   397.2781   739.9614 </r>
       <r>     2.3792   338.2383   764.1985 </r>
       <r>     2.4508   296.3502   785.4340 </r>
       <r>     2.5225   339.1482   809.7363 </r>
       <r>     2.5941   354.9534   835.1711 </r>
       <r>     2.6658   408.6493   864.4536 </r>
       <r>     2.7374   374.2530   891.2714 </r>
       <r>     2.8091   379.5668   918.4699 </r>
       <r>     2.8808   431.7889   949.4105 </r>
       <r>     2.9524   499.1457   985.1777 </r>
       <r>     3.0241   496.7672  1020.7745 </r>
       <r>     3.0957   369.2443  1047.2333 </r>
       <r>     3.1674   233.7477  1063.9829 </r>
       <r>     3.2390   205.2488  1078.6904 </r>
       <r>     3.3107   170.6406  1090.9180 </r>
       <r>     3.3824   138.1434  1100.8169 </r>
       <r>     3.4540   119.4838  1109.3787 </r>
       <r>     3.5257   157.4743  1120.6628 </r>
       <r>     3.5973   163.1313  1132.3523 </r>
       <r>     3.6690   100.9974  1139.5895 </r>
       <r>     3.7406    96.7647  1146.5233 </r>
       <r>     3.8123    65.0296  1151.1831 </r>
       <r>     3.8840    72.3397  1156.3667 </r>
       <r>     3.9556    73.2774  1161.6176 </r>
       <r>     4.0273    65.3913  1166.3033 </r>
       <r>     4.0989    92.3066  1172.9177 </r>
       <r>     4.1706   103.5288  1180.3362 </r>
       <r>     4.2422   114.2296  1188.5216 </r>
       <r>     4.3139    75.0563  1193.8999 </r>
       <r>     4.3856    72.9202  1199.1251 </r>
       <r>     4.4572    65.3769  1203.8098 </r>
       <r>     4.5289    92.2207  1210.4180 </r>
       <r>     4.6005    93.3011  1217.1037 </r>
       <r>     4.6722   102.5143  1224.4495 </r>
       <r>     4.7438   139.8010  1234.4672 </r>
       <r>     4.8155   137.7677  1244.3392 </r>
       <r>     4.8871    72.4248  1249.5289 </r>
       <r>     4.9588    53.5784  1253.3682 </r>
       <r>     5.0305    55.0700  1257.3143 </r>
       <r>     5.1021    87.3390  1263.5728 </r>
       <r>     5.1738   144.2920  1273.9123 </r>
       <r>     5.2454   108.5251  1281.6888 </r>
       <r>     5.3171    63.0155  1286.2043 </r>
       <r>     5.3887    59.6342  1290.4775 </r>
       <r>     5.4604    69.1004  1295.4290 </r>
       <r>     5.5321    72.5681  1300.6290 </r>
       <r>     5.6037    76.5718  1306.1159 </r>
       <r>     5.6754   110.7801  1314.0541 </r>
       <r>     5.7470   131.8995  1323.5056 </r>
       <r>     5.8187    72.6130  1328.7088 </r>
       <r>     5.8903    64.4750  1333.3289 </r>
       <r>     5.9620    58.3404  1337.5093 </r>
       <r>     6.0337    30.3782  1339.6861 </r>
       <r>     6.1053    18.8786  1341.0389 </r>
       <r>     6.1770    21.5613  1342.5839 </r>
       <r>     6.2486    16.8572  1343.7919 </r>
       <r>     6.3203     8.9387  1344.4324 </r>
       <r>     6.3919     0.9387  1344.4997 </r>
       <r>     6.4636     0.1219  1344.5084 </r>
       <r>     6.5353     1.8998  1344.6445 </r>
       <r>     6.6069     1.7753  1344.7717 </r>
       <r>     6.6786     5.3984  1345.1586 </r>
       <r>     6.7502    23.0022  1346.8068 </r>
       <r>     6.8219    25.9700  1348.6678 </r>
       <r>     6.8935    11.1392  1349.4660 </r>
       <r>     6.9652     6.3184  1349.9187 </r>
       <r>     7.0369     8.9674  1350.5613 </r>
       <r>     7.1085     4.6862  1350.8971 </r>
       <r>     7.1802    21.5738  1352.4430 </r>
       <r>     7.2518    23.9473  1354.1590 </r>
       <r>     7.3235    28.0442  1356.1685 </r>
       <r>     7.3951    31.4491  1358.4221 </r>
       <r>     7.4668    30.2959  1360.5930 </r>
       <r>     7.5384    60.9101  1364.9576 </r>
       <r>     7.6101    71.3289  1370.0688 </r>
       <r>     7.6818    26.6926  1371.9815 </r>
       <r>     7.7534    54.8554  1375.9123 </r>
       <r>     7.8251    69.6168  1380.9008 </r>
       <r>     7.8967    73.2429  1386.1492 </r>
       <r>     7.9684    75.5374  1391.5619 </r>
       <r>     8.0400    65.8770  1396.2825 </r>
       <r>     8.1117    34.3588  1398.7445 </r>
       <r>     8.1834    18.6102  1400.0780 </r>
       <r>     8.2550     8.3233  1400.6745 </r>
       <r>     8.3267    10.4792  1401.4254 </r>
       <r>     8.3983    50.9452  1405.0759 </r>
       <r>     8.4700    34.0025  1407.5125 </r>
       <r>     8.5416    32.3174  1409.8282 </r>
       <r>     8.6133    95.2409  1416.6529 </r>
       <r>     8.6850   104.3763  1424.1321 </r>
       <r>     8.7566    58.5345  1428.3265 </r>
       <r>     8.8283    51.3107  1432.0033 </r>
       <r>     8.8999    33.3978  1434.3965 </r>
       <r>     8.9716    45.8501  1437.6819 </r>
       <r>     9.0432    30.2017  1439.8461 </r>
       <r>     9.1149    22.1937  1441.4364 </r>
       <r>     9.1866    10.2838  1442.1733 </r>
       <r>     9.2582    16.8042  1443.3775 </r>
       <r>     9.3299    53.7280  1447.2275 </r>
       <r>     9.4015    49.6062  1450.7821 </r>
       <r>     9.4732    54.2843  1454.6719 </r>
       <r>     9.5448    38.1275  1457.4040 </r>
       <r>     9.6165    50.8656  1461.0489 </r>
       <r>     9.6882    50.0736  1464.6370 </r>
       <r>     9.7598    47.7195  1468.0564 </r>
       <r>     9.8315    52.6517  1471.8293 </r>
       <r>     9.9031    76.2394  1477.2923 </r>
       <r>     9.9748    55.9113  1481.2988 </r>
       <r>    10.0464   108.5406  1489.0764 </r>
       <r>    10.1181   118.6613  1497.5793 </r>
       <r>    10.1898    42.6344  1500.6344 </r>
       <r>    10.2614    28.6701  1502.6888 </r>
       <r>    10.3331    48.8447  1506.1888 </r>
       <r>    10.4047    56.4632  1510.2348 </r>
       <r>    10.4764    90.3769  1516.7109 </r>
       <r>    10.5480   110.0793  1524.5989 </r>
       <r>    10.6197   111.7814  1532.6088 </r>
       <r>    10.6913    94.1012  1539.3518 </r>
       <r>    10.7630    78.4522  1544.9734 </r>
       <r>    10.8347   107.4458  1552.6726 </r>
       <r>    10.9063    89.6520  1559.0968 </r>
       <r>    10.9780    64.8830  1563.7461 </r>
       <r>    11.0496    34.7984  1566.2396 </r>
       <r>    11.1213    55.6429  1570.2268 </r>
       <r>    11.1929    51.6260  1573.9262 </r>
       <r>    11.2646    44.9442  1577.1467 </r>
       <r>    11.3363    83.1829  1583.1074 </r>
       <r>    11.4079    53.2813  1586.9253 </r>
       <r>    11.4796    55.1821  1590.8795 </r>
       <r>    11.5512    88.7719  1597.2406 </r>
       <r>    11.6229    67.9686  1602.1110 </r>
       <r>    11.6945    45.9974  1605.4071 </r>
       <r>    11.7662    12.0248  1606.2687 </r>
       <r>    11.8379    15.0664  1607.3483 </r>
       <r>    11.9095    36.2761  1609.9478 </r>
       <r>    11.9812    20.5802  1611.4225 </r>
       <r>    12.0528     2.9906  1611.6368 </r>
       <r>    12.1245     4.5144  1611.9602 </r>
       <r>    12.1961     0.5526  1611.9998 </r>
       <r>    12.2678     0.0022  1612.0000 </r>
       <r>    12.3395     0.0000  1612.0000 </r>
       <r>    12.4111     0.0000  1612.0000 </r>
       <r>    12.4828     0.0000  1612.0000 </r>
       <r>    12.5544     0.0000  1612.0000 </r>
       <r>    12.6261     0.0000  1612.0000 </r>
       <r>    12.6977     0.0000  1612.0000 </r>
       <r>    12.7694     0.0000  1612.0000 </r>
       <r>    12.8411     0.0000  1612.0000 </r>
       <r>    12.9127     0.0000  1612.0000 </r>
       <r>    12.9844     0.0000  1612.0000 </r>
       <r>    13.0560     0.0000  1612.0000 </r>
      </set>
     </set>
    </array>
   </total>
  </dos>
 </calculation>
 <structure name="finalpos" >
  <crystal>
   <varray name="basis" >
    <v>      14.01039598       0.00139138       0.00000000 </v>
    <v>      -0.00150196      13.76691092       0.00000000 </v>
    <v>       0.00000000       0.00000000      14.55019386 </v>
   </varray>
   <i name="volume">   2806.43958022 </i>
   <varray name="rec_basis" >
    <v>       0.07137557       0.00000779       0.00000000 </v>
    <v>      -0.00000721       0.07263794       0.00000000 </v>
    <v>       0.00000000       0.00000000       0.06872761 </v>
   </varray>
  </crystal>
  <varray name="positions" >
   <v>       0.43059274       0.17167077       0.33247735 </v>
   <v>       0.92987898       0.17167077       0.33247735 </v>
   <v>       0.42987898       0.67167077       0.33247735 </v>
   <v>       0.92987898       0.67167077       0.33247735 </v>
   <v>       0.42987898       0.17167077       0.66581068 </v>
   <v>       0.92987898       0.17167077       0.66581068 </v>
   <v>       0.42987898       0.67167077       0.66581068 </v>
   <v>       0.92987898       0.67167077       0.66581068 </v>
   <v>       0.42987898       0.17167077       0.99914401 </v>
   <v>       0.92987898       0.17167077       0.99914401 </v>
   <v>       0.42987898       0.67167077       0.99914401 </v>
   <v>       0.92987898       0.67167077       0.99914401 </v>
   <v>       0.07012102       0.32832923       0.33247735 </v>
   <v>       0.57012102       0.32832923       0.33247735 </v>
   <v>       0.07012102       0.82832923       0.33247735 </v>
   <v>       0.57012102       0.82832923       0.33247735 </v>
   <v>       0.07012102       0.32832923       0.66581068 </v>
   <v>       0.57012102       0.32832923       0.66581068 </v>
   <v>       0.07012102       0.82832923       0.66581068 </v>
   <v>       0.57012102       0.82832923       0.66581068 </v>
   <v>       0.07012102       0.32832923       0.99914401 </v>
   <v>       0.57012102       0.32832923       0.99914401 </v>
   <v>       0.07012102       0.82832923       0.99914401 </v>
   <v>       0.57012102       0.82832923       0.99914401 </v>
   <v>       0.32012053       0.42167367       0.05641075 </v>
   <v>       0.82012053       0.42167367       0.05641075 </v>
   <v>       0.32012053       0.92167367       0.05641075 </v>
   <v>       0.82012053       0.92167367       0.05641075 </v>
   <v>       0.32012053       0.42167367       0.38974408 </v>
   <v>       0.82012053       0.42167367       0.38974408 </v>
   <v>       0.32012053       0.92167367       0.38974408 </v>
   <v>       0.82012053       0.92167367       0.38974408 </v>
   <v>       0.32012053       0.42167367       0.72307741 </v>
   <v>       0.82012053       0.42167367       0.72307741 </v>
   <v>       0.32012053       0.92167367       0.72307741 </v>
   <v>       0.82012053       0.92167367       0.72307741 </v>
   <v>       0.17987947       0.07832633       0.05641075 </v>
   <v>       0.67987947       0.07832633       0.05641075 </v>
   <v>       0.17987947       0.57832633       0.05641075 </v>
   <v>       0.67987947       0.57832633       0.05641075 </v>
   <v>       0.17987947       0.07832633       0.38974408 </v>
   <v>       0.67987947       0.07832633       0.38974408 </v>
   <v>       0.17987947       0.57832633       0.38974408 </v>
   <v>       0.67987947       0.57832633       0.38974408 </v>
   <v>       0.17987947       0.07832633       0.72307741 </v>
   <v>       0.67987947       0.07832633       0.72307741 </v>
   <v>       0.17987947       0.57832633       0.72307741 </v>
   <v>       0.67987947       0.57832633       0.72307741 </v>
   <v>       0.17987776       0.32832369       0.16580856 </v>
   <v>       0.67987776       0.32832369       0.16580856 </v>
   <v>       0.17987776       0.82832369       0.16580856 </v>
   <v>       0.67987776       0.82832369       0.16580856 </v>
   <v>       0.17987776       0.32832369       0.49914189 </v>
   <v>       0.67987776       0.32832369       0.49914189 </v>
   <v>       0.17987776       0.82832369       0.49914189 </v>
   <v>       0.67987776       0.82832369       0.49914189 </v>
   <v>       0.17987776       0.32832369       0.83247522 </v>
   <v>       0.67987776       0.32832369       0.83247522 </v>
   <v>       0.17987776       0.82832369       0.83247522 </v>
   <v>       0.67987776       0.82832369       0.83247522 </v>
   <v>       0.32012224       0.17167631       0.16580856 </v>
   <v>       0.82012224       0.17167631       0.16580856 </v>
   <v>       0.32012224       0.67167631       0.16580856 </v>
   <v>       0.82012224       0.67167631       0.16580856 </v>
   <v>       0.32012224       0.17167631       0.49914189 </v>
   <v>       0.82012224       0.17167631       0.49914189 </v>
   <v>       0.32012224       0.67167631       0.49914189 </v>
   <v>       0.82012224       0.67167631       0.49914189 </v>
   <v>       0.32012224       0.17167631       0.83247522 </v>
   <v>       0.82012224       0.17167631       0.83247522 </v>
   <v>       0.32012224       0.67167631       0.83247522 </v>
   <v>       0.82012224       0.67167631       0.83247522 </v>
   <v>       0.42987656       0.42167494       0.22308000 </v>
   <v>       0.92987656       0.42167494       0.22308000 </v>
   <v>       0.42987656       0.92167494       0.22308000 </v>
   <v>       0.92987656       0.92167494       0.22308000 </v>
   <v>       0.42987656       0.42167494       0.55641333 </v>
   <v>       0.92987656       0.42167494       0.55641333 </v>
   <v>       0.42987656       0.92167494       0.55641333 </v>
   <v>       0.92987656       0.92167494       0.55641333 </v>
   <v>       0.42987656       0.42167494       0.88974666 </v>
   <v>       0.92987656       0.42167494       0.88974666 </v>
   <v>       0.42987656       0.92167494       0.88974666 </v>
   <v>       0.92987656       0.92167494       0.88974666 </v>
   <v>       0.07012344       0.07832506       0.22308000 </v>
   <v>       0.57012344       0.07832506       0.22308000 </v>
   <v>       0.07012344       0.57832506       0.22308000 </v>
   <v>       0.57012344       0.57832506       0.22308000 </v>
   <v>       0.07012344       0.07832506       0.55641333 </v>
   <v>       0.57012344       0.07832506       0.55641333 </v>
   <v>       0.07012344       0.57832506       0.55641333 </v>
   <v>       0.57012344       0.57832506       0.55641333 </v>
   <v>       0.07012344       0.07832506       0.88974666 </v>
   <v>       0.57012344       0.07832506       0.88974666 </v>
   <v>       0.07012344       0.57832506       0.88974666 </v>
   <v>       0.57012344       0.57832506       0.88974666 </v>
   <v>       0.00000000       0.00000000       0.05479365 </v>
   <v>       0.50000000       0.00000000       0.05479365 </v>
   <v>       0.00000000       0.50000000       0.05479365 </v>
   <v>       0.50000000       0.50000000       0.05479365 </v>
   <v>       0.00000000       0.00000000       0.38812698 </v>
   <v>       0.50000000       0.00000000       0.38812698 </v>
   <v>       0.00000000       0.50000000       0.38812698 </v>
   <v>       0.50000000       0.50000000       0.38812698 </v>
   <v>       0.00000000       0.00000000       0.72146032 </v>
   <v>       0.50000000       0.00000000       0.72146032 </v>
   <v>       0.00000000       0.50000000       0.72146032 </v>
   <v>       0.50000000       0.50000000       0.72146032 </v>
   <v>       0.25000000       0.00000000       0.22145206 </v>
   <v>       0.75000000       0.00000000       0.22145206 </v>
   <v>       0.25000000       0.50000000       0.22145206 </v>
   <v>       0.75000000       0.50000000       0.22145206 </v>
   <v>       0.25000000       0.00000000       0.55478539 </v>
   <v>       0.75000000       0.00000000       0.55478539 </v>
   <v>       0.25000000       0.50000000       0.55478539 </v>
   <v>       0.75000000       0.50000000       0.55478539 </v>
   <v>       0.25000000       0.00000000       0.88811873 </v>
   <v>       0.75000000       0.00000000       0.88811873 </v>
   <v>       0.25000000       0.50000000       0.88811873 </v>
   <v>       0.75000000       0.50000000       0.88811873 </v>
   <v>       0.00000000       0.25000000       0.16743769 </v>
   <v>       0.50000000       0.25000000       0.16743769 </v>
   <v>       0.00000000       0.75000000       0.16743769 </v>
   <v>       0.50000000       0.75000000       0.16743769 </v>
   <v>       0.00000000       0.25000000       0.50077102 </v>
   <v>       0.50000000       0.25000000       0.50077102 </v>
   <v>       0.00000000       0.75000000       0.50077102 </v>
   <v>       0.50000000       0.75000000       0.50077102 </v>
   <v>       0.00000000       0.25000000       0.83410435 </v>
   <v>       0.50000000       0.25000000       0.83410435 </v>
   <v>       0.00000000       0.75000000       0.83410435 </v>
   <v>       0.50000000       0.75000000       0.83410435 </v>
   <v>       0.25000000       0.25000000       0.00076332 </v>
   <v>       0.75000000       0.25000000       0.00076332 </v>
   <v>       0.25000000       0.75000000       0.00076332 </v>
   <v>       0.75000000       0.75000000       0.00076332 </v>
   <v>       0.25000000       0.25000000       0.33409665 </v>
   <v>       0.75000000       0.25000000       0.33409665 </v>
   <v>       0.25000000       0.75000000       0.33409665 </v>
   <v>       0.75000000       0.75000000       0.33409665 </v>
   <v>       0.25000000       0.25000000       0.66742999 </v>
   <v>       0.75000000       0.25000000       0.66742999 </v>
   <v>       0.25000000       0.75000000       0.66742999 </v>
   <v>       0.75000000       0.75000000       0.66742999 </v>
  </varray>
 </structure>
</modeling>
