<?xml version="1.0" encoding="ISO-8859-1"?>
<modeling>
 <generator>
  <i name="program" type="string">vasp </i>
  <i name="version" type="string">5.4.4.18Apr17-6-g9f103f2a35  </i>
  <i name="subversion" type="string">(build Jul 30 2020 14:31:59) complex            parallel </i>
  <i name="platform" type="string">LinuxIFC </i>
  <i name="date" type="string">2021 02 04 </i>
  <i name="time" type="string">07:33:23 </i>
 </generator>
 <incar>
  <i type="string" name="PREC">accurate</i>
  <i type="string" name="ALGO"> normal</i>
  <i type="logical" name="ADDGRID"> T  </i>
  <i type="int" name="ISPIN">     1</i>
  <i type="int" name="NELM">   200</i>
  <i type="int" name="NELMIN">     8</i>
  <i name="EDIFF">      0.00000001</i>
  <i type="int" name="ISIF">     3</i>
  <i type="int" name="ISYM">     0</i>
  <i name="ENCUT">    650.00000000</i>
  <i type="logical" name="LREAL"> F  </i>
  <i type="int" name="ISMEAR">     0</i>
  <i name="SIGMA">      0.05000000</i>
  <i type="logical" name="LWAVE"> F  </i>
  <i type="logical" name="LASPH"> T  </i>
  <v type="int" name="KPOINT_BSE">    -1     0     0     0</v>
  <i type="int" name="NELM">   200</i>
  <i type="string" name="GGA"> ps</i>
  <i type="logical" name="LASPH"> T  </i>
 </incar>
 <structure name="primitive_cell" >
  <crystal>
   <varray name="basis" >
    <v>      14.01039598       0.00139138       0.00000000 </v>
    <v>      -0.00150196      13.76691092       0.00000000 </v>
    <v>       0.00000000       0.00000000      14.55019386 </v>
   </varray>
   <i name="volume">   2806.43958022 </i>
   <varray name="rec_basis" >
    <v>       0.07137557       0.00000779       0.00000000 </v>
    <v>      -0.00000721       0.07263794       0.00000000 </v>
    <v>       0.00000000       0.00000000       0.06872761 </v>
   </varray>
  </crystal>
  <varray name="positions" >
   <v>       0.42987898       0.17167077       0.33247735 </v>
   <v>      -0.50000000       0.00000000       0.38812698 </v>
   <v>       0.25000000       0.25000000       0.33409665 </v>
   <v>      -0.50000000       0.25000000       0.16743769 </v>
   <v>      -0.42987656       0.07832506       0.22308000 </v>
   <v>      -0.50000000       0.25000000      -0.49922898 </v>
   <v>       0.32012224       0.17167631       0.49914189 </v>
   <v>       0.32012224       0.17167631       0.16580856 </v>
   <v>      -0.42987898       0.32832923       0.33247735 </v>
   <v>       0.42987656      -0.07832506       0.22308000 </v>
   <v>       0.42987656       0.42167494       0.22308000 </v>
   <v>       0.25000000       0.00000000       0.22145206 </v>
   <v>       0.17987948       0.07832633       0.38974408 </v>
   <v>      -0.32012052       0.07832633       0.38974408 </v>
   <v>       0.32012052      -0.07832633       0.38974408 </v>
   <v>       0.32012052       0.42167367       0.38974408 </v>
   <v>      -0.42987656       0.07832506      -0.44358667 </v>
   <v>      -0.25000000       0.25000000       0.33409665 </v>
   <v>      -0.50000000      -0.50000000       0.38812698 </v>
   <v>       0.25000000       0.00000000      -0.44521461 </v>
   <v>       0.42987656      -0.07832506      -0.44358667 </v>
   <v>       0.42987656       0.42167494      -0.44358667 </v>
   <v>      -0.32012224       0.32832369       0.49914189 </v>
   <v>      -0.32012224       0.32832369       0.16580856 </v>
   <v>       0.17987776       0.32832369       0.49914189 </v>
   <v>       0.17987776       0.32832369       0.16580856 </v>
   <v>      -0.50000000       0.00000000       0.05479365 </v>
   <v>       0.42987898       0.17167077      -0.33418932 </v>
   <v>       0.42987898       0.17167077      -0.00085599 </v>
   <v>      -0.42987898      -0.17167077       0.33247735 </v>
   <v>      -0.25000000       0.00000000       0.22145206 </v>
   <v>       0.25000000      -0.50000000       0.22145206 </v>
   <v>       0.07012344       0.07832506       0.22308000 </v>
   <v>       0.17987948       0.07832633       0.05641075 </v>
   <v>      -0.32012052       0.07832633       0.05641075 </v>
   <v>       0.07012102       0.32832923       0.33247735 </v>
   <v>       0.32012052      -0.07832633       0.05641075 </v>
   <v>       0.32012052       0.42167367       0.05641075 </v>
   <v>       0.25000000       0.25000000       0.00076332 </v>
   <v>       0.25000000       0.25000000      -0.33257001 </v>
   <v>      -0.42987898       0.32832923      -0.33418932 </v>
   <v>      -0.42987898       0.32832923      -0.00085599 </v>
   <v>      -0.17987776       0.17167631       0.49914189 </v>
   <v>      -0.17987776       0.17167631       0.16580856 </v>
   <v>      -0.25000000       0.00000000      -0.44521461 </v>
   <v>       0.25000000      -0.50000000      -0.44521461 </v>
   <v>       0.07012344       0.07832506      -0.44358667 </v>
   <v>      -0.50000000      -0.50000000       0.05479365 </v>
   <v>      -0.42987656      -0.42167494       0.22308000 </v>
   <v>      -0.50000000       0.00000000      -0.27853968 </v>
   <v>       0.25000000      -0.25000000       0.33409665 </v>
   <v>      -0.50000000      -0.25000000       0.16743769 </v>
   <v>       0.17987776      -0.17167631       0.49914189 </v>
   <v>       0.17987776      -0.17167631       0.16580856 </v>
   <v>      -0.32012224      -0.17167631       0.49914189 </v>
   <v>      -0.32012224      -0.17167631       0.16580856 </v>
   <v>      -0.50000000      -0.25000000      -0.49922898 </v>
   <v>      -0.17987948       0.42167367       0.38974408 </v>
   <v>      -0.17987948      -0.07832633       0.38974408 </v>
   <v>       0.00000000       0.00000000       0.38812698 </v>
   <v>      -0.25000000      -0.50000000       0.22145206 </v>
   <v>      -0.00049507       0.25000000       0.16694261 </v>
   <v>       0.00000000       0.25000000      -0.49922898 </v>
   <v>      -0.32012052      -0.42167367       0.38974408 </v>
   <v>       0.17987948      -0.42167367       0.38974408 </v>
   <v>      -0.25000000       0.25000000       0.00076332 </v>
   <v>      -0.25000000       0.25000000      -0.33257001 </v>
   <v>      -0.42987656      -0.42167494      -0.44358667 </v>
   <v>       0.17987948       0.07832633      -0.27692259 </v>
   <v>      -0.32012052       0.07832633      -0.27692259 </v>
   <v>       0.32012052      -0.07832633      -0.27692259 </v>
   <v>       0.32012052       0.42167367      -0.27692259 </v>
   <v>      -0.42987656       0.07832506      -0.11025334 </v>
   <v>       0.42987898      -0.32832923       0.33247735 </v>
   <v>       0.07012102      -0.17167077       0.33247735 </v>
   <v>      -0.07012102       0.17167077       0.33247735 </v>
   <v>      -0.42987898      -0.17167077      -0.33418932 </v>
   <v>      -0.42987898      -0.17167077      -0.00085599 </v>
   <v>      -0.25000000      -0.50000000      -0.44521461 </v>
   <v>       0.42987656      -0.07832506      -0.11025334 </v>
   <v>       0.42987656       0.42167494      -0.11025334 </v>
   <v>      -0.50000000      -0.50000000      -0.27853968 </v>
   <v>       0.07012102       0.32832923      -0.33418932 </v>
   <v>       0.07012102       0.32832923      -0.00085599 </v>
   <v>       0.25000000       0.00000000      -0.11188127 </v>
   <v>      -0.25000000      -0.25000000       0.33409665 </v>
   <v>      -0.50000000       0.25000000      -0.16589565 </v>
   <v>       0.32012224       0.17167631      -0.16752478 </v>
   <v>       0.32012224      -0.32832369       0.49914189 </v>
   <v>       0.32012224      -0.32832369       0.16580856 </v>
   <v>       0.00000000      -0.50000000       0.38812698 </v>
   <v>      -0.17987948       0.42167367       0.05641075 </v>
   <v>      -0.17987948      -0.07832633       0.05641075 </v>
   <v>       0.00000000       0.00000000       0.05479365 </v>
   <v>       0.07012344      -0.42167494       0.22308000 </v>
   <v>      -0.32012052      -0.42167367       0.05641075 </v>
   <v>       0.17987948      -0.42167367       0.05641075 </v>
   <v>       0.25000000      -0.25000000       0.00076332 </v>
   <v>      -0.07012344       0.42167494       0.22308000 </v>
   <v>      -0.07012344      -0.07832506       0.22308000 </v>
   <v>       0.25000000      -0.25000000      -0.33257001 </v>
   <v>       0.07012344      -0.42167494      -0.44358667 </v>
   <v>      -0.25000000       0.00000000      -0.11188127 </v>
   <v>       0.07012344       0.07832506      -0.11025334 </v>
   <v>       0.25000000      -0.50000000      -0.11188127 </v>
   <v>      -0.32012224       0.32832369      -0.16752478 </v>
   <v>       0.17987776       0.32832369      -0.16752478 </v>
   <v>       0.42987898      -0.32832923      -0.33418932 </v>
   <v>       0.42987898      -0.32832923      -0.00085599 </v>
   <v>       0.07012102      -0.17167077      -0.33418932 </v>
   <v>       0.07012102      -0.17167077      -0.00085599 </v>
   <v>      -0.07012344       0.42167494      -0.44358667 </v>
   <v>      -0.07012344      -0.07832506      -0.44358667 </v>
   <v>      -0.07012102       0.17167077      -0.33418932 </v>
   <v>      -0.07012102       0.17167077      -0.00085599 </v>
   <v>       0.00000000      -0.50000000       0.05479365 </v>
   <v>       0.00000000       0.00000000      -0.27853968 </v>
   <v>      -0.17987948       0.42167367      -0.27692259 </v>
   <v>      -0.17987948      -0.07832633      -0.27692259 </v>
   <v>       0.00000000      -0.25000000       0.16743769 </v>
   <v>      -0.32012052      -0.42167367      -0.27692259 </v>
   <v>       0.17987948      -0.42167367      -0.27692259 </v>
   <v>       0.00000000      -0.25000000      -0.49922898 </v>
   <v>      -0.42987656      -0.42167494      -0.11025334 </v>
   <v>      -0.25000000      -0.25000000       0.00076332 </v>
   <v>      -0.25000000      -0.25000000      -0.33257001 </v>
   <v>      -0.25000000      -0.50000000      -0.11188127 </v>
   <v>      -0.17987776       0.17167631      -0.16752478 </v>
   <v>      -0.17987776      -0.32832369       0.49914189 </v>
   <v>      -0.17987776      -0.32832369       0.16580856 </v>
   <v>      -0.50000000      -0.25000000      -0.16589565 </v>
   <v>       0.17987776      -0.17167631      -0.16752478 </v>
   <v>      -0.32012224      -0.17167631      -0.16752478 </v>
   <v>       0.00000000      -0.50000000      -0.27853968 </v>
   <v>       0.00000000       0.25000000      -0.16589565 </v>
   <v>      -0.07012102      -0.32832923       0.33247735 </v>
   <v>       0.07012344      -0.42167494      -0.11025334 </v>
   <v>      -0.07012344       0.42167494      -0.11025334 </v>
   <v>      -0.07012344      -0.07832506      -0.11025334 </v>
   <v>       0.32012224      -0.32832369      -0.16752478 </v>
   <v>      -0.07012102      -0.32832923      -0.33418932 </v>
   <v>      -0.07012102      -0.32832923      -0.00085599 </v>
   <v>       0.00000000      -0.25000000      -0.16589565 </v>
   <v>      -0.17987776      -0.32832369      -0.16752478 </v>
  </varray>
 </structure>
 <varray name="primitive_index" >
  <v type="int" >        1 </v>
  <v type="int" >      102 </v>
  <v type="int" >      137 </v>
  <v type="int" >      122 </v>
  <v type="int" >       86 </v>
  <v type="int" >      126 </v>
  <v type="int" >       65 </v>
  <v type="int" >       61 </v>
  <v type="int" >       14 </v>
  <v type="int" >       75 </v>
  <v type="int" >       73 </v>
  <v type="int" >      109 </v>
  <v type="int" >       41 </v>
  <v type="int" >       42 </v>
  <v type="int" >       31 </v>
  <v type="int" >       29 </v>
  <v type="int" >       90 </v>
  <v type="int" >      138 </v>
  <v type="int" >      104 </v>
  <v type="int" >      113 </v>
  <v type="int" >       79 </v>
  <v type="int" >       77 </v>
  <v type="int" >       54 </v>
  <v type="int" >       50 </v>
  <v type="int" >       53 </v>
  <v type="int" >       49 </v>
  <v type="int" >       98 </v>
  <v type="int" >        5 </v>
  <v type="int" >        9 </v>
  <v type="int" >       16 </v>
  <v type="int" >      110 </v>
  <v type="int" >      111 </v>
  <v type="int" >       85 </v>
  <v type="int" >       37 </v>
  <v type="int" >       38 </v>
  <v type="int" >       13 </v>
  <v type="int" >       27 </v>
  <v type="int" >       25 </v>
  <v type="int" >      133 </v>
  <v type="int" >      141 </v>
  <v type="int" >       18 </v>
  <v type="int" >       22 </v>
  <v type="int" >       66 </v>
  <v type="int" >       62 </v>
  <v type="int" >      114 </v>
  <v type="int" >      115 </v>
  <v type="int" >       89 </v>
  <v type="int" >      100 </v>
  <v type="int" >       88 </v>
  <v type="int" >      106 </v>
  <v type="int" >      139 </v>
  <v type="int" >      124 </v>
  <v type="int" >       55 </v>
  <v type="int" >       51 </v>
  <v type="int" >       56 </v>
  <v type="int" >       52 </v>
  <v type="int" >      128 </v>
  <v type="int" >       30 </v>
  <v type="int" >       32 </v>
  <v type="int" >      101 </v>
  <v type="int" >      112 </v>
  <v type="int" >      121 </v>
  <v type="int" >      125 </v>
  <v type="int" >       44 </v>
  <v type="int" >       43 </v>
  <v type="int" >      134 </v>
  <v type="int" >      142 </v>
  <v type="int" >       92 </v>
  <v type="int" >       45 </v>
  <v type="int" >       46 </v>
  <v type="int" >       35 </v>
  <v type="int" >       33 </v>
  <v type="int" >       94 </v>
  <v type="int" >        3 </v>
  <v type="int" >       15 </v>
  <v type="int" >        2 </v>
  <v type="int" >       20 </v>
  <v type="int" >       24 </v>
  <v type="int" >      116 </v>
  <v type="int" >       83 </v>
  <v type="int" >       81 </v>
  <v type="int" >      108 </v>
  <v type="int" >       17 </v>
  <v type="int" >       21 </v>
  <v type="int" >      117 </v>
  <v type="int" >      140 </v>
  <v type="int" >      130 </v>
  <v type="int" >       69 </v>
  <v type="int" >       67 </v>
  <v type="int" >       63 </v>
  <v type="int" >      103 </v>
  <v type="int" >       26 </v>
  <v type="int" >       28 </v>
  <v type="int" >       97 </v>
  <v type="int" >       87 </v>
  <v type="int" >       40 </v>
  <v type="int" >       39 </v>
  <v type="int" >      135 </v>
  <v type="int" >       74 </v>
  <v type="int" >       76 </v>
  <v type="int" >      143 </v>
  <v type="int" >       91 </v>
  <v type="int" >      118 </v>
  <v type="int" >       93 </v>
  <v type="int" >      119 </v>
  <v type="int" >       58 </v>
  <v type="int" >       57 </v>
  <v type="int" >        7 </v>
  <v type="int" >       11 </v>
  <v type="int" >       19 </v>
  <v type="int" >       23 </v>
  <v type="int" >       78 </v>
  <v type="int" >       80 </v>
  <v type="int" >        6 </v>
  <v type="int" >       10 </v>
  <v type="int" >       99 </v>
  <v type="int" >      105 </v>
  <v type="int" >       34 </v>
  <v type="int" >       36 </v>
  <v type="int" >      123 </v>
  <v type="int" >       48 </v>
  <v type="int" >       47 </v>
  <v type="int" >      127 </v>
  <v type="int" >       96 </v>
  <v type="int" >      136 </v>
  <v type="int" >      144 </v>
  <v type="int" >      120 </v>
  <v type="int" >       70 </v>
  <v type="int" >       68 </v>
  <v type="int" >       64 </v>
  <v type="int" >      132 </v>
  <v type="int" >       59 </v>
  <v type="int" >       60 </v>
  <v type="int" >      107 </v>
  <v type="int" >      129 </v>
  <v type="int" >        4 </v>
  <v type="int" >       95 </v>
  <v type="int" >       82 </v>
  <v type="int" >       84 </v>
  <v type="int" >       71 </v>
  <v type="int" >        8 </v>
  <v type="int" >       12 </v>
  <v type="int" >      131 </v>
  <v type="int" >       72 </v>
 </varray>
 <kpoints>
  <generation param="Gamma">
   <v type="int" name="divisions">       2        2        2 </v>
   <v name="usershift">      0.00000000       0.00000000       0.00000000 </v>
   <v name="genvec1">      0.50000000       0.00000000       0.00000000 </v>
   <v name="genvec2">      0.00000000       0.50000000       0.00000000 </v>
   <v name="genvec3">      0.00000000       0.00000000       0.50000000 </v>
   <v name="shift">      0.00000000       0.00000000       0.00000000 </v>
  </generation>
  <varray name="kpointlist" >
   <v>       0.00000000       0.00000000       0.00000000 </v>
   <v>       0.50000000      -0.00000000       0.00000000 </v>
   <v>       0.00000000       0.50000000       0.00000000 </v>
   <v>       0.50000000       0.50000000       0.00000000 </v>
   <v>       0.00000000       0.00000000       0.50000000 </v>
   <v>       0.50000000      -0.00000000       0.50000000 </v>
   <v>       0.00000000       0.50000000       0.50000000 </v>
   <v>       0.50000000       0.50000000       0.50000000 </v>
  </varray>
  <varray name="weights" >
   <v>       0.12500000 </v>
   <v>       0.12500000 </v>
   <v>       0.12500000 </v>
   <v>       0.12500000 </v>
   <v>       0.12500000 </v>
   <v>       0.12500000 </v>
   <v>       0.12500000 </v>
   <v>       0.12500000 </v>
  </varray>
 </kpoints>
 <parameters>
  <separator name="general" >
   <i type="string" name="SYSTEM">unknown system</i>
   <i type="logical" name="LCOMPAT"> F  </i>
  </separator>
  <separator name="electronic" >
   <i type="string" name="PREC">accura</i>
   <i name="ENMAX">    650.00000000</i>
   <i name="ENAUG">    446.84200000</i>
   <i name="EDIFF">      0.00000001</i>
   <i type="int" name="IALGO">    38</i>
   <i type="int" name="IWAVPR">    10</i>
   <i type="int" name="NBANDS">   806</i>
   <i name="NELECT">   1344.00000000</i>
   <i type="int" name="TURBO">     0</i>
   <i type="int" name="IRESTART">     0</i>
   <i type="int" name="NREBOOT">     0</i>
   <i type="int" name="NMIN">     0</i>
   <i name="EREF">      0.00000000</i>
   <separator name="electronic smearing" >
    <i type="int" name="ISMEAR">     0</i>
    <i name="SIGMA">      0.05000000</i>
    <i name="KSPACING">      0.50000000</i>
    <i type="logical" name="KGAMMA"> T  </i>
   </separator>
   <separator name="electronic projectors" >
    <i type="logical" name="LREAL"> F  </i>
    <v name="ROPT">      0.00000000      0.00000000</v>
    <i type="int" name="LMAXPAW">  -100</i>
    <i type="int" name="LMAXMIX">     2</i>
    <i type="logical" name="NLSPLINE"> F  </i>
   </separator>
   <separator name="electronic startup" >
    <i type="int" name="ISTART">     0</i>
    <i type="int" name="ICHARG">     2</i>
    <i type="int" name="INIWAV">     1</i>
   </separator>
   <separator name="electronic spin" >
    <i type="int" name="ISPIN">     1</i>
    <i type="logical" name="LNONCOLLINEAR"> F  </i>
    <v name="MAGMOM">      1.00000000      1.00000000      1.00000000      1.00000000      1.00000000      1.00000000      1.00000000      1.00000000      1.00000000      1.00000000      1.00000000      1.00000000      1.00000000      1.00000000      1.00000000      1.00000000      1.00000000      1.00000000      1.00000000      1.00000000
      1.00000000      1.00000000      1.00000000      1.00000000      1.00000000      1.00000000      1.00000000      1.00000000      1.00000000      1.00000000      1.00000000      1.00000000      1.00000000      1.00000000      1.00000000      1.00000000      1.00000000      1.00000000      1.00000000      1.00000000
      1.00000000      1.00000000      1.00000000      1.00000000      1.00000000      1.00000000      1.00000000      1.00000000      1.00000000      1.00000000      1.00000000      1.00000000      1.00000000      1.00000000      1.00000000      1.00000000      1.00000000      1.00000000      1.00000000      1.00000000
      1.00000000      1.00000000      1.00000000      1.00000000      1.00000000      1.00000000      1.00000000      1.00000000      1.00000000      1.00000000      1.00000000      1.00000000      1.00000000      1.00000000      1.00000000      1.00000000      1.00000000      1.00000000      1.00000000      1.00000000
      1.00000000      1.00000000      1.00000000      1.00000000      1.00000000      1.00000000      1.00000000      1.00000000      1.00000000      1.00000000      1.00000000      1.00000000      1.00000000      1.00000000      1.00000000      1.00000000      1.00000000      1.00000000      1.00000000      1.00000000
      1.00000000      1.00000000      1.00000000      1.00000000      1.00000000      1.00000000      1.00000000      1.00000000      1.00000000      1.00000000      1.00000000      1.00000000      1.00000000      1.00000000      1.00000000      1.00000000      1.00000000      1.00000000      1.00000000      1.00000000
      1.00000000      1.00000000      1.00000000      1.00000000      1.00000000      1.00000000      1.00000000      1.00000000      1.00000000      1.00000000      1.00000000      1.00000000      1.00000000      1.00000000      1.00000000      1.00000000      1.00000000      1.00000000      1.00000000      1.00000000
      1.00000000      1.00000000      1.00000000      1.00000000</v>
    <i name="NUPDOWN">     -1.00000000</i>
    <i type="logical" name="LSORBIT"> F  </i>
    <v name="SAXIS">      0.00000000      0.00000000      1.00000000</v>
    <i type="logical" name="LSPIRAL"> F  </i>
    <v name="QSPIRAL">      0.00000000      0.00000000      0.00000000</v>
    <i type="logical" name="LZEROZ"> F  </i>
   </separator>
   <separator name="electronic exchange-correlation" >
    <i type="logical" name="LASPH"> T  </i>
    <i type="logical" name="LMETAGGA"> F  </i>
   </separator>
   <separator name="electronic convergence" >
    <i type="int" name="NELM">   200</i>
    <i type="int" name="NELMDL">    -5</i>
    <i type="int" name="NELMIN">     8</i>
    <i name="ENINI">    650.00000000</i>
    <separator name="electronic convergence detail" >
     <i type="logical" name="LDIAG"> T  </i>
     <i type="logical" name="LSUBROT"> F  </i>
     <i name="WEIMIN">      0.00000000</i>
     <i name="EBREAK">      0.00000000</i>
     <i name="DEPER">      0.30000000</i>
     <i type="int" name="NRMM">     4</i>
     <i name="TIME">      0.40000000</i>
    </separator>
   </separator>
   <separator name="electronic mixer" >
    <i name="AMIX">      0.40000000</i>
    <i name="BMIX">      1.00000000</i>
    <i name="AMIN">      0.10000000</i>
    <i name="AMIX_MAG">      1.60000000</i>
    <i name="BMIX_MAG">      1.00000000</i>
    <separator name="electronic mixer details" >
     <i type="int" name="IMIX">     4</i>
     <i type="logical" name="MIXFIRST"> F  </i>
     <i type="int" name="MAXMIX">   -45</i>
     <i name="WC">    100.00000000</i>
     <i type="int" name="INIMIX">     1</i>
     <i type="int" name="MIXPRE">     1</i>
     <i type="int" name="MREMOVE">     5</i>
    </separator>
   </separator>
   <separator name="electronic dipolcorrection" >
    <i type="logical" name="LDIPOL"> F  </i>
    <i type="logical" name="LMONO"> F  </i>
    <i type="int" name="IDIPOL">     0</i>
    <i name="EPSILON">      1.00000000</i>
    <v name="DIPOL">   -100.00000000   -100.00000000   -100.00000000</v>
    <i name="EFIELD">      0.00000000</i>
   </separator>
  </separator>
  <separator name="grids" >
   <i type="int" name="NGX">   120</i>
   <i type="int" name="NGY">   120</i>
   <i type="int" name="NGZ">   126</i>
   <i type="int" name="NGXF">   240</i>
   <i type="int" name="NGYF">   240</i>
   <i type="int" name="NGZF">   252</i>
   <i type="logical" name="ADDGRID"> T  </i>
  </separator>
  <separator name="ionic" >
   <i type="int" name="NSW">     0</i>
   <i type="int" name="IBRION">    -1</i>
   <i type="int" name="MDALGO">     0</i>
   <i type="int" name="ISIF">     3</i>
   <i name="PSTRESS">      0.00000000</i>
   <i name="EDIFFG">      0.00000010</i>
   <i type="int" name="NFREE">     0</i>
   <i name="POTIM">      0.50000000</i>
   <i name="SMASS">     -3.00000000</i>
   <i name="SCALEE">      1.00000000</i>
  </separator>
  <separator name="ionic md" >
   <i name="TEBEG">      0.00010000</i>
   <i name="TEEND">      0.00010000</i>
   <i type="int" name="NBLOCK">     1</i>
   <i type="int" name="KBLOCK">     1</i>
   <i type="int" name="NPACO">   256</i>
   <i name="APACO">     16.00000000</i>
  </separator>
  <separator name="symmetry" >
   <i type="int" name="ISYM">     0</i>
   <i name="SYMPREC">      0.00001000</i>
  </separator>
  <separator name="dos" >
   <i type="int" name="LORBIT">     0</i>
   <v name="RWIGS">     -1.00000000     -1.00000000</v>
   <i type="int" name="NEDOS">   301</i>
   <i name="EMIN">     10.00000000</i>
   <i name="EMAX">    -10.00000000</i>
   <i name="EFERMI">      0.00000000</i>
  </separator>
  <separator name="writing" >
   <i type="int" name="NWRITE">     2</i>
   <i type="logical" name="LWAVE"> F  </i>
   <i type="logical" name="LDOWNSAMPLE"> F  </i>
   <i type="logical" name="LCHARG"> T  </i>
   <i type="logical" name="LPARD"> F  </i>
   <i type="logical" name="LVTOT"> F  </i>
   <i type="logical" name="LVHAR"> F  </i>
   <i type="logical" name="LELF"> F  </i>
   <i type="logical" name="LOPTICS"> F  </i>
   <v name="STM">      0.00000000      0.00000000      0.00000000      0.00000000      0.00000000      0.00000000      0.00000000</v>
  </separator>
  <separator name="performance" >
   <i type="int" name="NPAR">     1</i>
   <i type="int" name="NSIM">     4</i>
   <i type="int" name="NBLK">    -1</i>
   <i type="logical" name="LPLANE"> T  </i>
   <i type="logical" name="LSCALAPACK"> T  </i>
   <i type="logical" name="LSCAAWARE"> F  </i>
   <i type="logical" name="LSCALU"> F  </i>
   <i type="logical" name="LASYNC"> F  </i>
   <i type="logical" name="LORBITALREAL"> F  </i>
  </separator>
  <separator name="miscellaneous" >
   <i type="int" name="IDIOT">     3</i>
   <i type="int" name="ISPECIAL">     0</i>
   <i type="logical" name="LMUSIC"> F  </i>
   <v name="POMASS">    107.86800000     78.96000000</v>
   <v name="DARWINR">      0.00000000      0.00000000</v>
   <v name="DARWINV">      1.00000000      1.00000000</v>
   <i type="logical" name="LCORR"> T  </i>
  </separator>
  <i type="logical" name="GGA_COMPAT"> T  </i>
  <i type="logical" name="LBERRY"> F  </i>
  <i type="int" name="ICORELEVEL">     0</i>
  <i type="logical" name="LDAU"> F  </i>
  <i type="int" name="I_CONSTRAINED_M">     0</i>
  <separator name="electronic exchange-correlation" >
   <i type="string" name="GGA">PS</i>
   <i type="int" name="VOSKOWN">     0</i>
   <i type="logical" name="LHFCALC"> F  </i>
   <i type="string" name="PRECFOCK"></i>
   <i type="logical" name="LSYMGRAD"> F  </i>
   <i type="logical" name="LHFONE"> F  </i>
   <i type="logical" name="LRHFCALC"> F  </i>
   <i type="logical" name="LTHOMAS"> F  </i>
   <i type="logical" name="LMODELHF"> F  </i>
   <i name="ENCUT4O">     -1.00000000</i>
   <i type="int" name="EXXOEP">     0</i>
   <i type="int" name="FOURORBIT">     0</i>
   <i name="AEXX">      0.00000000</i>
   <i name="HFALPHA">      0.00000000</i>
   <i name="MCALPHA">      0.00000000</i>
   <i name="ALDAX">      1.00000000</i>
   <i name="AGGAX">      1.00000000</i>
   <i name="ALDAC">      1.00000000</i>
   <i name="AGGAC">      1.00000000</i>
   <i type="int" name="NKREDX">     1</i>
   <i type="int" name="NKREDY">     1</i>
   <i type="int" name="NKREDZ">     1</i>
   <i type="logical" name="SHIFTRED"> F  </i>
   <i type="logical" name="ODDONLY"> F  </i>
   <i type="logical" name="EVENONLY"> F  </i>
   <i type="int" name="LMAXFOCK">     0</i>
   <i type="int" name="NMAXFOCKAE">     0</i>
   <i type="logical" name="LFOCKAEDFT"> F  </i>
   <i name="HFSCREEN">      0.00000000</i>
   <i name="HFSCREENC">      0.00000000</i>
   <i type="int" name="NBANDSGWLOW">     0</i>
  </separator>
  <separator name="vdW DFT" >
   <i type="logical" name="LUSE_VDW"> F  </i>
   <i name="Zab_VDW">     -0.84910000</i>
   <i name="PARAM1">      0.12340000</i>
   <i name="PARAM2">      1.00000000</i>
   <i name="PARAM3">      0.00000000</i>
  </separator>
  <separator name="model GW" >
   <i type="int" name="MODEL_GW">     0</i>
   <i name="MODEL_EPS0">     11.69349825</i>
   <i name="MODEL_ALPHA">      1.00000000</i>
  </separator>
  <separator name="linear response parameters" >
   <i type="logical" name="LEPSILON"> F  </i>
   <i type="logical" name="LRPA"> F  </i>
   <i type="logical" name="LNABLA"> F  </i>
   <i type="logical" name="LVEL"> F  </i>
   <i type="int" name="KINTER">     0</i>
   <i name="CSHIFT">      0.10000000</i>
   <i name="OMEGAMAX">     -1.00000000</i>
   <i name="DEG_THRESHOLD">      0.00200000</i>
   <i name="RTIME">     -0.10000000</i>
   <i name="WPLASMAI">      0.00000000</i>
   <v name="DFIELD">      0.00000000      0.00000000      0.00000000</v>
   <v name="WPLASMA">      0.00000000      0.00000000      0.00000000      0.00000000      0.00000000      0.00000000      0.00000000      0.00000000      0.00000000</v>
  </separator>
  <separator name="orbital magnetization" >
   <i type="logical" name="NUCIND"> F  </i>
   <v name="MAGPOS">      0.00000000      0.00000000      0.00000000</v>
   <i type="logical" name="LNICSALL"> T  </i>
   <i type="logical" name="ORBITALMAG"> F  </i>
   <i type="logical" name="LMAGBLOCH"> F  </i>
   <i type="logical" name="LCHIMAG"> F  </i>
   <i type="logical" name="LGAUGE"> T  </i>
   <i type="int" name="MAGATOM">     0</i>
   <v name="MAGDIPOL">      0.00000000      0.00000000      0.00000000</v>
   <v name="AVECCONST">      0.00000000      0.00000000      0.00000000</v>
  </separator>
  <separator name="response functions" >
   <i type="logical" name="LADDER"> F  </i>
   <i type="logical" name="LRPAFORCE"> F  </i>
   <i type="logical" name="LFXC"> F  </i>
   <i type="logical" name="LHARTREE"> T  </i>
   <i type="int" name="IBSE">     0</i>
   <v type="int" name="KPOINT">    -1     0     0     0</v>
   <i type="logical" name="LTCTE"> F  </i>
   <i type="logical" name="LTETE"> F  </i>
   <i type="logical" name="LTRIPLET"> F  </i>
   <i type="logical" name="LFXCEPS"> F  </i>
   <i type="logical" name="LFXHEG"> F  </i>
   <i type="int" name="NATURALO">     2</i>
   <i type="logical" name="L2ORDER"> F  </i>
   <i type="logical" name="LMP2LT"> F  </i>
   <i type="logical" name="LUSEW"> F  </i>
   <i name="ENCUTGW">     -2.00000000</i>
   <i name="ENCUTGWSOFT">     -2.00000000</i>
   <i name="ENCUTLF">     -1.00000000</i>
   <i type="int" name="LMAXMP2">    -1</i>
   <i name="SCISSOR">      0.00000000</i>
   <i type="int" name="NOMEGA">     0</i>
   <i type="int" name="NOMEGAR">     0</i>
   <i type="int" name="NBANDSGW">    -1</i>
   <i type="int" name="NBANDSO">    -1</i>
   <i type="int" name="NBANDSV">    -1</i>
   <i type="int" name="NELM">   200</i>
   <i type="int" name="NELMHF">     1</i>
   <i type="int" name="DIM">     3</i>
   <i type="int" name="ANTIRES">     0</i>
   <i name="OMEGAMAX">    -30.00000000</i>
   <i name="OMEGAMIN">    -30.00000000</i>
   <i name="OMEGATL">   -200.00000000</i>
   <i type="int" name="OMEGAGRID">   140</i>
   <i name="CSHIFT">     -0.10000000</i>
   <i type="logical" name="SELFENERGY"> F  </i>
   <i type="logical" name="LSPECTRAL"> F  </i>
   <i type="logical" name="LSPECTRALGW"> F  </i>
   <i type="logical" name="LSINGLES"> F  </i>
   <i type="logical" name="LFERMIGW"> F  </i>
   <i type="logical" name="ODDONLYGW"> F  </i>
   <i type="logical" name="EVENONLYGW"> F  </i>
   <i type="int" name="NKREDLFX">     1</i>
   <i type="int" name="NKREDLFY">     1</i>
   <i type="int" name="NKREDLFZ">     1</i>
   <i type="int" name="MAXMEM">  2800</i>
   <i type="int" name="TELESCOPE">     0</i>
   <i type="int" name="TAUPAR">     1</i>
   <i type="int" name="OMEGAPAR">    -1</i>
   <i name="LAMBDA">      1.00000000</i>
  </separator>
  <separator name="External order field" >
   <i name="OFIELD_KAPPA">      0.00000000</i>
   <v name="OFIELD_K">      0.00000000      0.00000000      0.00000000</v>
   <i name="OFIELD_Q6_NEAR">      0.00000000</i>
   <i name="OFIELD_Q6_FAR">      0.00000000</i>
   <i name="OFIELD_A">      0.00000000</i>
  </separator>
 </parameters>
 <atominfo>
  <atoms>     144 </atoms>
  <types>       2 </types>
  <array name="atoms" >
   <dimension dim="1">ion</dimension>
   <field type="string">element</field>
   <field type="int">atomtype</field>
   <set>
    <rc><c>Ag</c><c>   1</c></rc>
    <rc><c>Ag</c><c>   1</c></rc>
    <rc><c>Ag</c><c>   1</c></rc>
    <rc><c>Ag</c><c>   1</c></rc>
    <rc><c>Ag</c><c>   1</c></rc>
    <rc><c>Ag</c><c>   1</c></rc>
    <rc><c>Ag</c><c>   1</c></rc>
    <rc><c>Ag</c><c>   1</c></rc>
    <rc><c>Ag</c><c>   1</c></rc>
    <rc><c>Ag</c><c>   1</c></rc>
    <rc><c>Ag</c><c>   1</c></rc>
    <rc><c>Ag</c><c>   1</c></rc>
    <rc><c>Ag</c><c>   1</c></rc>
    <rc><c>Ag</c><c>   1</c></rc>
    <rc><c>Ag</c><c>   1</c></rc>
    <rc><c>Ag</c><c>   1</c></rc>
    <rc><c>Ag</c><c>   1</c></rc>
    <rc><c>Ag</c><c>   1</c></rc>
    <rc><c>Ag</c><c>   1</c></rc>
    <rc><c>Ag</c><c>   1</c></rc>
    <rc><c>Ag</c><c>   1</c></rc>
    <rc><c>Ag</c><c>   1</c></rc>
    <rc><c>Ag</c><c>   1</c></rc>
    <rc><c>Ag</c><c>   1</c></rc>
    <rc><c>Ag</c><c>   1</c></rc>
    <rc><c>Ag</c><c>   1</c></rc>
    <rc><c>Ag</c><c>   1</c></rc>
    <rc><c>Ag</c><c>   1</c></rc>
    <rc><c>Ag</c><c>   1</c></rc>
    <rc><c>Ag</c><c>   1</c></rc>
    <rc><c>Ag</c><c>   1</c></rc>
    <rc><c>Ag</c><c>   1</c></rc>
    <rc><c>Ag</c><c>   1</c></rc>
    <rc><c>Ag</c><c>   1</c></rc>
    <rc><c>Ag</c><c>   1</c></rc>
    <rc><c>Ag</c><c>   1</c></rc>
    <rc><c>Ag</c><c>   1</c></rc>
    <rc><c>Ag</c><c>   1</c></rc>
    <rc><c>Ag</c><c>   1</c></rc>
    <rc><c>Ag</c><c>   1</c></rc>
    <rc><c>Ag</c><c>   1</c></rc>
    <rc><c>Ag</c><c>   1</c></rc>
    <rc><c>Ag</c><c>   1</c></rc>
    <rc><c>Ag</c><c>   1</c></rc>
    <rc><c>Ag</c><c>   1</c></rc>
    <rc><c>Ag</c><c>   1</c></rc>
    <rc><c>Ag</c><c>   1</c></rc>
    <rc><c>Ag</c><c>   1</c></rc>
    <rc><c>Ag</c><c>   1</c></rc>
    <rc><c>Ag</c><c>   1</c></rc>
    <rc><c>Ag</c><c>   1</c></rc>
    <rc><c>Ag</c><c>   1</c></rc>
    <rc><c>Ag</c><c>   1</c></rc>
    <rc><c>Ag</c><c>   1</c></rc>
    <rc><c>Ag</c><c>   1</c></rc>
    <rc><c>Ag</c><c>   1</c></rc>
    <rc><c>Ag</c><c>   1</c></rc>
    <rc><c>Ag</c><c>   1</c></rc>
    <rc><c>Ag</c><c>   1</c></rc>
    <rc><c>Ag</c><c>   1</c></rc>
    <rc><c>Ag</c><c>   1</c></rc>
    <rc><c>Ag</c><c>   1</c></rc>
    <rc><c>Ag</c><c>   1</c></rc>
    <rc><c>Ag</c><c>   1</c></rc>
    <rc><c>Ag</c><c>   1</c></rc>
    <rc><c>Ag</c><c>   1</c></rc>
    <rc><c>Ag</c><c>   1</c></rc>
    <rc><c>Ag</c><c>   1</c></rc>
    <rc><c>Ag</c><c>   1</c></rc>
    <rc><c>Ag</c><c>   1</c></rc>
    <rc><c>Ag</c><c>   1</c></rc>
    <rc><c>Ag</c><c>   1</c></rc>
    <rc><c>Ag</c><c>   1</c></rc>
    <rc><c>Ag</c><c>   1</c></rc>
    <rc><c>Ag</c><c>   1</c></rc>
    <rc><c>Ag</c><c>   1</c></rc>
    <rc><c>Ag</c><c>   1</c></rc>
    <rc><c>Ag</c><c>   1</c></rc>
    <rc><c>Ag</c><c>   1</c></rc>
    <rc><c>Ag</c><c>   1</c></rc>
    <rc><c>Ag</c><c>   1</c></rc>
    <rc><c>Ag</c><c>   1</c></rc>
    <rc><c>Ag</c><c>   1</c></rc>
    <rc><c>Ag</c><c>   1</c></rc>
    <rc><c>Ag</c><c>   1</c></rc>
    <rc><c>Ag</c><c>   1</c></rc>
    <rc><c>Ag</c><c>   1</c></rc>
    <rc><c>Ag</c><c>   1</c></rc>
    <rc><c>Ag</c><c>   1</c></rc>
    <rc><c>Ag</c><c>   1</c></rc>
    <rc><c>Ag</c><c>   1</c></rc>
    <rc><c>Ag</c><c>   1</c></rc>
    <rc><c>Ag</c><c>   1</c></rc>
    <rc><c>Ag</c><c>   1</c></rc>
    <rc><c>Ag</c><c>   1</c></rc>
    <rc><c>Ag</c><c>   1</c></rc>
    <rc><c>Se</c><c>   2</c></rc>
    <rc><c>Se</c><c>   2</c></rc>
    <rc><c>Se</c><c>   2</c></rc>
    <rc><c>Se</c><c>   2</c></rc>
    <rc><c>Se</c><c>   2</c></rc>
    <rc><c>Se</c><c>   2</c></rc>
    <rc><c>Se</c><c>   2</c></rc>
    <rc><c>Se</c><c>   2</c></rc>
    <rc><c>Se</c><c>   2</c></rc>
    <rc><c>Se</c><c>   2</c></rc>
    <rc><c>Se</c><c>   2</c></rc>
    <rc><c>Se</c><c>   2</c></rc>
    <rc><c>Se</c><c>   2</c></rc>
    <rc><c>Se</c><c>   2</c></rc>
    <rc><c>Se</c><c>   2</c></rc>
    <rc><c>Se</c><c>   2</c></rc>
    <rc><c>Se</c><c>   2</c></rc>
    <rc><c>Se</c><c>   2</c></rc>
    <rc><c>Se</c><c>   2</c></rc>
    <rc><c>Se</c><c>   2</c></rc>
    <rc><c>Se</c><c>   2</c></rc>
    <rc><c>Se</c><c>   2</c></rc>
    <rc><c>Se</c><c>   2</c></rc>
    <rc><c>Se</c><c>   2</c></rc>
    <rc><c>Se</c><c>   2</c></rc>
    <rc><c>Se</c><c>   2</c></rc>
    <rc><c>Se</c><c>   2</c></rc>
    <rc><c>Se</c><c>   2</c></rc>
    <rc><c>Se</c><c>   2</c></rc>
    <rc><c>Se</c><c>   2</c></rc>
    <rc><c>Se</c><c>   2</c></rc>
    <rc><c>Se</c><c>   2</c></rc>
    <rc><c>Se</c><c>   2</c></rc>
    <rc><c>Se</c><c>   2</c></rc>
    <rc><c>Se</c><c>   2</c></rc>
    <rc><c>Se</c><c>   2</c></rc>
    <rc><c>Se</c><c>   2</c></rc>
    <rc><c>Se</c><c>   2</c></rc>
    <rc><c>Se</c><c>   2</c></rc>
    <rc><c>Se</c><c>   2</c></rc>
    <rc><c>Se</c><c>   2</c></rc>
    <rc><c>Se</c><c>   2</c></rc>
    <rc><c>Se</c><c>   2</c></rc>
    <rc><c>Se</c><c>   2</c></rc>
    <rc><c>Se</c><c>   2</c></rc>
    <rc><c>Se</c><c>   2</c></rc>
    <rc><c>Se</c><c>   2</c></rc>
    <rc><c>Se</c><c>   2</c></rc>
   </set>
  </array>
  <array name="atomtypes" >
   <dimension dim="1">type</dimension>
   <field type="int">atomspertype</field>
   <field type="string">element</field>
   <field>mass</field>
   <field>valence</field>
   <field type="string">pseudopotential</field>
   <set>
    <rc><c>  96</c><c>Ag</c><c>    107.86800000</c><c>     11.00000000</c><c>  PAW_PBE Ag 02Apr2005                  </c></rc>
    <rc><c>  48</c><c>Se</c><c>     78.96000000</c><c>      6.00000000</c><c>  PAW_PBE Se 06Sep2000                  </c></rc>
   </set>
  </array>
 </atominfo>
 <structure name="initialpos" >
  <crystal>
   <varray name="basis" >
    <v>      14.01039598       0.00139138       0.00000000 </v>
    <v>      -0.00150196      13.76691092       0.00000000 </v>
    <v>       0.00000000       0.00000000      14.55019386 </v>
   </varray>
   <i name="volume">   2806.43958022 </i>
   <varray name="rec_basis" >
    <v>       0.07137557       0.00000779       0.00000000 </v>
    <v>      -0.00000721       0.07263794       0.00000000 </v>
    <v>       0.00000000       0.00000000       0.06872761 </v>
   </varray>
  </crystal>
  <varray name="positions" >
   <v>       0.42987898       0.17167077       0.33247735 </v>
   <v>       0.92987898       0.17167077       0.33247735 </v>
   <v>       0.42987898       0.67167077       0.33247735 </v>
   <v>       0.92987898       0.67167077       0.33247735 </v>
   <v>       0.42987898       0.17167077       0.66581068 </v>
   <v>       0.92987898       0.17167077       0.66581068 </v>
   <v>       0.42987898       0.67167077       0.66581068 </v>
   <v>       0.92987898       0.67167077       0.66581068 </v>
   <v>       0.42987898       0.17167077       0.99914401 </v>
   <v>       0.92987898       0.17167077       0.99914401 </v>
   <v>       0.42987898       0.67167077       0.99914401 </v>
   <v>       0.92987898       0.67167077       0.99914401 </v>
   <v>       0.07012102       0.32832923       0.33247735 </v>
   <v>       0.57012102       0.32832923       0.33247735 </v>
   <v>       0.07012102       0.82832923       0.33247735 </v>
   <v>       0.57012102       0.82832923       0.33247735 </v>
   <v>       0.07012102       0.32832923       0.66581068 </v>
   <v>       0.57012102       0.32832923       0.66581068 </v>
   <v>       0.07012102       0.82832923       0.66581068 </v>
   <v>       0.57012102       0.82832923       0.66581068 </v>
   <v>       0.07012102       0.32832923       0.99914401 </v>
   <v>       0.57012102       0.32832923       0.99914401 </v>
   <v>       0.07012102       0.82832923       0.99914401 </v>
   <v>       0.57012102       0.82832923       0.99914401 </v>
   <v>       0.32012053       0.42167367       0.05641075 </v>
   <v>       0.82012053       0.42167367       0.05641075 </v>
   <v>       0.32012053       0.92167367       0.05641075 </v>
   <v>       0.82012053       0.92167367       0.05641075 </v>
   <v>       0.32012053       0.42167367       0.38974408 </v>
   <v>       0.82012053       0.42167367       0.38974408 </v>
   <v>       0.32012053       0.92167367       0.38974408 </v>
   <v>       0.82012053       0.92167367       0.38974408 </v>
   <v>       0.32012053       0.42167367       0.72307741 </v>
   <v>       0.82012053       0.42167367       0.72307741 </v>
   <v>       0.32012053       0.92167367       0.72307741 </v>
   <v>       0.82012053       0.92167367       0.72307741 </v>
   <v>       0.17987947       0.07832633       0.05641075 </v>
   <v>       0.67987947       0.07832633       0.05641075 </v>
   <v>       0.17987947       0.57832633       0.05641075 </v>
   <v>       0.67987947       0.57832633       0.05641075 </v>
   <v>       0.17987947       0.07832633       0.38974408 </v>
   <v>       0.67987947       0.07832633       0.38974408 </v>
   <v>       0.17987947       0.57832633       0.38974408 </v>
   <v>       0.67987947       0.57832633       0.38974408 </v>
   <v>       0.17987947       0.07832633       0.72307741 </v>
   <v>       0.67987947       0.07832633       0.72307741 </v>
   <v>       0.17987947       0.57832633       0.72307741 </v>
   <v>       0.67987947       0.57832633       0.72307741 </v>
   <v>       0.17987776       0.32832369       0.16580856 </v>
   <v>       0.67987776       0.32832369       0.16580856 </v>
   <v>       0.17987776       0.82832369       0.16580856 </v>
   <v>       0.67987776       0.82832369       0.16580856 </v>
   <v>       0.17987776       0.32832369       0.49914189 </v>
   <v>       0.67987776       0.32832369       0.49914189 </v>
   <v>       0.17987776       0.82832369       0.49914189 </v>
   <v>       0.67987776       0.82832369       0.49914189 </v>
   <v>       0.17987776       0.32832369       0.83247522 </v>
   <v>       0.67987776       0.32832369       0.83247522 </v>
   <v>       0.17987776       0.82832369       0.83247522 </v>
   <v>       0.67987776       0.82832369       0.83247522 </v>
   <v>       0.32012224       0.17167631       0.16580856 </v>
   <v>       0.82012224       0.17167631       0.16580856 </v>
   <v>       0.32012224       0.67167631       0.16580856 </v>
   <v>       0.82012224       0.67167631       0.16580856 </v>
   <v>       0.32012224       0.17167631       0.49914189 </v>
   <v>       0.82012224       0.17167631       0.49914189 </v>
   <v>       0.32012224       0.67167631       0.49914189 </v>
   <v>       0.82012224       0.67167631       0.49914189 </v>
   <v>       0.32012224       0.17167631       0.83247522 </v>
   <v>       0.82012224       0.17167631       0.83247522 </v>
   <v>       0.32012224       0.67167631       0.83247522 </v>
   <v>       0.82012224       0.67167631       0.83247522 </v>
   <v>       0.42987656       0.42167494       0.22308000 </v>
   <v>       0.92987656       0.42167494       0.22308000 </v>
   <v>       0.42987656       0.92167494       0.22308000 </v>
   <v>       0.92987656       0.92167494       0.22308000 </v>
   <v>       0.42987656       0.42167494       0.55641333 </v>
   <v>       0.92987656       0.42167494       0.55641333 </v>
   <v>       0.42987656       0.92167494       0.55641333 </v>
   <v>       0.92987656       0.92167494       0.55641333 </v>
   <v>       0.42987656       0.42167494       0.88974666 </v>
   <v>       0.92987656       0.42167494       0.88974666 </v>
   <v>       0.42987656       0.92167494       0.88974666 </v>
   <v>       0.92987656       0.92167494       0.88974666 </v>
   <v>       0.07012344       0.07832506       0.22308000 </v>
   <v>       0.57012344       0.07832506       0.22308000 </v>
   <v>       0.07012344       0.57832506       0.22308000 </v>
   <v>       0.57012344       0.57832506       0.22308000 </v>
   <v>       0.07012344       0.07832506       0.55641333 </v>
   <v>       0.57012344       0.07832506       0.55641333 </v>
   <v>       0.07012344       0.57832506       0.55641333 </v>
   <v>       0.57012344       0.57832506       0.55641333 </v>
   <v>       0.07012344       0.07832506       0.88974666 </v>
   <v>       0.57012344       0.07832506       0.88974666 </v>
   <v>       0.07012344       0.57832506       0.88974666 </v>
   <v>       0.57012344       0.57832506       0.88974666 </v>
   <v>       0.00000000       0.00000000       0.05479365 </v>
   <v>       0.50000000       0.00000000       0.05479365 </v>
   <v>       0.00000000       0.50000000       0.05479365 </v>
   <v>       0.50000000       0.50000000       0.05479365 </v>
   <v>       0.00000000       0.00000000       0.38812698 </v>
   <v>       0.50000000       0.00000000       0.38812698 </v>
   <v>       0.00000000       0.50000000       0.38812698 </v>
   <v>       0.50000000       0.50000000       0.38812698 </v>
   <v>       0.00000000       0.00000000       0.72146032 </v>
   <v>       0.50000000       0.00000000       0.72146032 </v>
   <v>       0.00000000       0.50000000       0.72146032 </v>
   <v>       0.50000000       0.50000000       0.72146032 </v>
   <v>       0.25000000       0.00000000       0.22145206 </v>
   <v>       0.75000000       0.00000000       0.22145206 </v>
   <v>       0.25000000       0.50000000       0.22145206 </v>
   <v>       0.75000000       0.50000000       0.22145206 </v>
   <v>       0.25000000       0.00000000       0.55478539 </v>
   <v>       0.75000000       0.00000000       0.55478539 </v>
   <v>       0.25000000       0.50000000       0.55478539 </v>
   <v>       0.75000000       0.50000000       0.55478539 </v>
   <v>       0.25000000       0.00000000       0.88811873 </v>
   <v>       0.75000000       0.00000000       0.88811873 </v>
   <v>       0.25000000       0.50000000       0.88811873 </v>
   <v>       0.75000000       0.50000000       0.88811873 </v>
   <v>       0.99950493       0.25000000       0.16694261 </v>
   <v>       0.50000000       0.25000000       0.16743769 </v>
   <v>       0.00000000       0.75000000       0.16743769 </v>
   <v>       0.50000000       0.75000000       0.16743769 </v>
   <v>       0.00000000       0.25000000       0.50077102 </v>
   <v>       0.50000000       0.25000000       0.50077102 </v>
   <v>       0.00000000       0.75000000       0.50077102 </v>
   <v>       0.50000000       0.75000000       0.50077102 </v>
   <v>       0.00000000       0.25000000       0.83410435 </v>
   <v>       0.50000000       0.25000000       0.83410435 </v>
   <v>       0.00000000       0.75000000       0.83410435 </v>
   <v>       0.50000000       0.75000000       0.83410435 </v>
   <v>       0.25000000       0.25000000       0.00076332 </v>
   <v>       0.75000000       0.25000000       0.00076332 </v>
   <v>       0.25000000       0.75000000       0.00076332 </v>
   <v>       0.75000000       0.75000000       0.00076332 </v>
   <v>       0.25000000       0.25000000       0.33409665 </v>
   <v>       0.75000000       0.25000000       0.33409665 </v>
   <v>       0.25000000       0.75000000       0.33409665 </v>
   <v>       0.75000000       0.75000000       0.33409665 </v>
   <v>       0.25000000       0.25000000       0.66742999 </v>
   <v>       0.75000000       0.25000000       0.66742999 </v>
   <v>       0.25000000       0.75000000       0.66742999 </v>
   <v>       0.75000000       0.75000000       0.66742999 </v>
  </varray>
 </structure>
 <calculation>
  <scstep>
   <time name="dav">  884.31  886.32</time>
   <time name="total">  887.69  889.72</time>
   <energy>
    <i name="alphaZ">   4890.97834259 </i>
    <i name="ewald"> -98843.40607778 </i>
    <i name="hartreedc"> -25788.89867460 </i>
    <i name="XCdc">   -889.86475714 </i>
    <i name="pawpsdc"> 106286.73805879 </i>
    <i name="pawaedc">-101298.59693205 </i>
    <i name="eentropy">     -0.04312629 </i>
    <i name="bandstr">  14366.16396782 </i>
    <i name="atom"> 111881.97810035 </i>
    <i name="e_fr_energy">  10605.04890168 </i>
    <i name="e_wo_entrp">  10605.09202798 </i>
    <i name="e_0_energy">  10605.07046483 </i>
   </energy>
  </scstep>
  <scstep>
   <time name="dav">  918.01  920.42</time>
   <time name="total">  918.01  920.43</time>
   <energy>
    <i name="e_fr_energy">    151.05619181 </i>
    <i name="e_wo_entrp">    151.06843710 </i>
    <i name="e_0_energy">    151.06231445 </i>
   </energy>
  </scstep>
  <scstep>
   <time name="dav">  964.40  967.20</time>
   <time name="total">  964.40  967.21</time>
   <energy>
    <i name="e_fr_energy">   -517.93685836 </i>
    <i name="e_wo_entrp">   -517.93074881 </i>
    <i name="e_0_energy">   -517.93380358 </i>
   </energy>
  </scstep>
  <scstep>
   <time name="dav">  937.14  939.53</time>
   <time name="total">  937.15  939.53</time>
   <energy>
    <i name="e_fr_energy">   -535.41611760 </i>
    <i name="e_wo_entrp">   -535.41066694 </i>
    <i name="e_0_energy">   -535.41339227 </i>
   </energy>
  </scstep>
  <scstep>
   <time name="dav">  953.57  956.10</time>
   <time name="total">  968.32  970.89</time>
   <energy>
    <i name="e_fr_energy">   -535.67100936 </i>
    <i name="e_wo_entrp">   -535.66555072 </i>
    <i name="e_0_energy">   -535.66828004 </i>
   </energy>
  </scstep>
  <scstep>
   <time name="dav">  921.34  923.43</time>
   <time name="total">  938.98  941.12</time>
   <energy>
    <i name="e_fr_energy">   -504.98230617 </i>
    <i name="e_wo_entrp">   -504.96682707 </i>
    <i name="e_0_energy">   -504.97456662 </i>
   </energy>
  </scstep>
  <scstep>
   <time name="dav">  915.73  918.06</time>
   <time name="total">  933.73  936.11</time>
   <energy>
    <i name="e_fr_energy">   -505.65768472 </i>
    <i name="e_wo_entrp">   -505.64193201 </i>
    <i name="e_0_energy">   -505.64980837 </i>
   </energy>
  </scstep>
  <scstep>
   <time name="dav">  950.00  952.41</time>
   <time name="total">  967.71  970.17</time>
   <energy>
    <i name="e_fr_energy">   -505.18190362 </i>
    <i name="e_wo_entrp">   -505.16729928 </i>
    <i name="e_0_energy">   -505.17460145 </i>
   </energy>
  </scstep>
  <scstep>
   <time name="dav">  935.44  937.80</time>
   <time name="total">  953.15  955.55</time>
   <energy>
    <i name="e_fr_energy">   -505.12624963 </i>
    <i name="e_wo_entrp">   -505.11103310 </i>
    <i name="e_0_energy">   -505.11864136 </i>
   </energy>
  </scstep>
  <scstep>
   <time name="dav">  934.20  936.45</time>
   <time name="total">  952.15  954.45</time>
   <energy>
    <i name="e_fr_energy">   -505.12837224 </i>
    <i name="e_wo_entrp">   -505.11309788 </i>
    <i name="e_0_energy">   -505.12073506 </i>
   </energy>
  </scstep>
  <scstep>
   <time name="dav">  935.38  937.71</time>
   <time name="total">  953.39  955.76</time>
   <energy>
    <i name="e_fr_energy">   -505.12824721 </i>
    <i name="e_wo_entrp">   -505.11304111 </i>
    <i name="e_0_energy">   -505.12064416 </i>
   </energy>
  </scstep>
  <scstep>
   <time name="dav">  922.92  925.20</time>
   <time name="total">  940.62  942.94</time>
   <energy>
    <i name="e_fr_energy">   -505.12820514 </i>
    <i name="e_wo_entrp">   -505.11297882 </i>
    <i name="e_0_energy">   -505.12059198 </i>
   </energy>
  </scstep>
  <scstep>
   <time name="dav">  982.05  984.57</time>
   <time name="total">  999.69 1002.38</time>
   <energy>
    <i name="e_fr_energy">   -505.12820517 </i>
    <i name="e_wo_entrp">   -505.11298174 </i>
    <i name="e_0_energy">   -505.12059345 </i>
   </energy>
  </scstep>
  <scstep>
   <time name="dav">  931.19  933.34</time>
   <time name="total">  948.89  951.08</time>
   <energy>
    <i name="e_fr_energy">   -505.12820404 </i>
    <i name="e_wo_entrp">   -505.11298171 </i>
    <i name="e_0_energy">   -505.12059288 </i>
   </energy>
  </scstep>
  <scstep>
   <time name="dav">  947.03  949.21</time>
   <time name="total">  964.72  966.94</time>
   <energy>
    <i name="e_fr_energy">   -505.12820253 </i>
    <i name="e_wo_entrp">   -505.11298041 </i>
    <i name="e_0_energy">   -505.12059147 </i>
   </energy>
  </scstep>
  <scstep>
   <time name="dav">  858.26  860.16</time>
   <time name="total">  861.68  863.58</time>
   <energy>
    <i name="alphaZ">   4890.97834259 </i>
    <i name="ewald"> -98843.40607778 </i>
    <i name="hartreedc"> -24657.72184328 </i>
    <i name="XCdc">   -922.45192806 </i>
    <i name="pawpsdc"> 122251.99272265 </i>
    <i name="pawaedc">-117444.24553687 </i>
    <i name="eentropy">     -0.01522192 </i>
    <i name="bandstr">   2337.76323978 </i>
    <i name="atom"> 111881.97810035 </i>
    <i name="e_fr_energy">   -505.12820254 </i>
    <i name="e_wo_entrp">   -505.11298062 </i>
    <i name="e_0_energy">   -505.12059158 </i>
   </energy>
  </scstep>
  <structure>
   <crystal>
    <varray name="basis" >
     <v>      14.01039598       0.00139138       0.00000000 </v>
     <v>      -0.00150196      13.76691092       0.00000000 </v>
     <v>       0.00000000       0.00000000      14.55019386 </v>
    </varray>
    <i name="volume">   2806.43958022 </i>
    <varray name="rec_basis" >
     <v>       0.07137557       0.00000779       0.00000000 </v>
     <v>      -0.00000721       0.07263794       0.00000000 </v>
     <v>       0.00000000       0.00000000       0.06872761 </v>
    </varray>
   </crystal>
   <varray name="positions" >
    <v>       0.42987898       0.17167077       0.33247735 </v>
    <v>       0.92987898       0.17167077       0.33247735 </v>
    <v>       0.42987898       0.67167077       0.33247735 </v>
    <v>       0.92987898       0.67167077       0.33247735 </v>
    <v>       0.42987898       0.17167077       0.66581068 </v>
    <v>       0.92987898       0.17167077       0.66581068 </v>
    <v>       0.42987898       0.67167077       0.66581068 </v>
    <v>       0.92987898       0.67167077       0.66581068 </v>
    <v>       0.42987898       0.17167077       0.99914401 </v>
    <v>       0.92987898       0.17167077       0.99914401 </v>
    <v>       0.42987898       0.67167077       0.99914401 </v>
    <v>       0.92987898       0.67167077       0.99914401 </v>
    <v>       0.07012102       0.32832923       0.33247735 </v>
    <v>       0.57012102       0.32832923       0.33247735 </v>
    <v>       0.07012102       0.82832923       0.33247735 </v>
    <v>       0.57012102       0.82832923       0.33247735 </v>
    <v>       0.07012102       0.32832923       0.66581068 </v>
    <v>       0.57012102       0.32832923       0.66581068 </v>
    <v>       0.07012102       0.82832923       0.66581068 </v>
    <v>       0.57012102       0.82832923       0.66581068 </v>
    <v>       0.07012102       0.32832923       0.99914401 </v>
    <v>       0.57012102       0.32832923       0.99914401 </v>
    <v>       0.07012102       0.82832923       0.99914401 </v>
    <v>       0.57012102       0.82832923       0.99914401 </v>
    <v>       0.32012053       0.42167367       0.05641075 </v>
    <v>       0.82012053       0.42167367       0.05641075 </v>
    <v>       0.32012053       0.92167367       0.05641075 </v>
    <v>       0.82012053       0.92167367       0.05641075 </v>
    <v>       0.32012053       0.42167367       0.38974408 </v>
    <v>       0.82012053       0.42167367       0.38974408 </v>
    <v>       0.32012053       0.92167367       0.38974408 </v>
    <v>       0.82012053       0.92167367       0.38974408 </v>
    <v>       0.32012053       0.42167367       0.72307741 </v>
    <v>       0.82012053       0.42167367       0.72307741 </v>
    <v>       0.32012053       0.92167367       0.72307741 </v>
    <v>       0.82012053       0.92167367       0.72307741 </v>
    <v>       0.17987947       0.07832633       0.05641075 </v>
    <v>       0.67987947       0.07832633       0.05641075 </v>
    <v>       0.17987947       0.57832633       0.05641075 </v>
    <v>       0.67987947       0.57832633       0.05641075 </v>
    <v>       0.17987947       0.07832633       0.38974408 </v>
    <v>       0.67987947       0.07832633       0.38974408 </v>
    <v>       0.17987947       0.57832633       0.38974408 </v>
    <v>       0.67987947       0.57832633       0.38974408 </v>
    <v>       0.17987947       0.07832633       0.72307741 </v>
    <v>       0.67987947       0.07832633       0.72307741 </v>
    <v>       0.17987947       0.57832633       0.72307741 </v>
    <v>       0.67987947       0.57832633       0.72307741 </v>
    <v>       0.17987776       0.32832369       0.16580856 </v>
    <v>       0.67987776       0.32832369       0.16580856 </v>
    <v>       0.17987776       0.82832369       0.16580856 </v>
    <v>       0.67987776       0.82832369       0.16580856 </v>
    <v>       0.17987776       0.32832369       0.49914189 </v>
    <v>       0.67987776       0.32832369       0.49914189 </v>
    <v>       0.17987776       0.82832369       0.49914189 </v>
    <v>       0.67987776       0.82832369       0.49914189 </v>
    <v>       0.17987776       0.32832369       0.83247522 </v>
    <v>       0.67987776       0.32832369       0.83247522 </v>
    <v>       0.17987776       0.82832369       0.83247522 </v>
    <v>       0.67987776       0.82832369       0.83247522 </v>
    <v>       0.32012224       0.17167631       0.16580856 </v>
    <v>       0.82012224       0.17167631       0.16580856 </v>
    <v>       0.32012224       0.67167631       0.16580856 </v>
    <v>       0.82012224       0.67167631       0.16580856 </v>
    <v>       0.32012224       0.17167631       0.49914189 </v>
    <v>       0.82012224       0.17167631       0.49914189 </v>
    <v>       0.32012224       0.67167631       0.49914189 </v>
    <v>       0.82012224       0.67167631       0.49914189 </v>
    <v>       0.32012224       0.17167631       0.83247522 </v>
    <v>       0.82012224       0.17167631       0.83247522 </v>
    <v>       0.32012224       0.67167631       0.83247522 </v>
    <v>       0.82012224       0.67167631       0.83247522 </v>
    <v>       0.42987656       0.42167494       0.22308000 </v>
    <v>       0.92987656       0.42167494       0.22308000 </v>
    <v>       0.42987656       0.92167494       0.22308000 </v>
    <v>       0.92987656       0.92167494       0.22308000 </v>
    <v>       0.42987656       0.42167494       0.55641333 </v>
    <v>       0.92987656       0.42167494       0.55641333 </v>
    <v>       0.42987656       0.92167494       0.55641333 </v>
    <v>       0.92987656       0.92167494       0.55641333 </v>
    <v>       0.42987656       0.42167494       0.88974666 </v>
    <v>       0.92987656       0.42167494       0.88974666 </v>
    <v>       0.42987656       0.92167494       0.88974666 </v>
    <v>       0.92987656       0.92167494       0.88974666 </v>
    <v>       0.07012344       0.07832506       0.22308000 </v>
    <v>       0.57012344       0.07832506       0.22308000 </v>
    <v>       0.07012344       0.57832506       0.22308000 </v>
    <v>       0.57012344       0.57832506       0.22308000 </v>
    <v>       0.07012344       0.07832506       0.55641333 </v>
    <v>       0.57012344       0.07832506       0.55641333 </v>
    <v>       0.07012344       0.57832506       0.55641333 </v>
    <v>       0.57012344       0.57832506       0.55641333 </v>
    <v>       0.07012344       0.07832506       0.88974666 </v>
    <v>       0.57012344       0.07832506       0.88974666 </v>
    <v>       0.07012344       0.57832506       0.88974666 </v>
    <v>       0.57012344       0.57832506       0.88974666 </v>
    <v>       0.00000000       0.00000000       0.05479365 </v>
    <v>       0.50000000       0.00000000       0.05479365 </v>
    <v>       0.00000000       0.50000000       0.05479365 </v>
    <v>       0.50000000       0.50000000       0.05479365 </v>
    <v>       0.00000000       0.00000000       0.38812698 </v>
    <v>       0.50000000       0.00000000       0.38812698 </v>
    <v>       0.00000000       0.50000000       0.38812698 </v>
    <v>       0.50000000       0.50000000       0.38812698 </v>
    <v>       0.00000000       0.00000000       0.72146032 </v>
    <v>       0.50000000       0.00000000       0.72146032 </v>
    <v>       0.00000000       0.50000000       0.72146032 </v>
    <v>       0.50000000       0.50000000       0.72146032 </v>
    <v>       0.25000000       0.00000000       0.22145206 </v>
    <v>       0.75000000       0.00000000       0.22145206 </v>
    <v>       0.25000000       0.50000000       0.22145206 </v>
    <v>       0.75000000       0.50000000       0.22145206 </v>
    <v>       0.25000000       0.00000000       0.55478539 </v>
    <v>       0.75000000       0.00000000       0.55478539 </v>
    <v>       0.25000000       0.50000000       0.55478539 </v>
    <v>       0.75000000       0.50000000       0.55478539 </v>
    <v>       0.25000000       0.00000000       0.88811873 </v>
    <v>       0.75000000       0.00000000       0.88811873 </v>
    <v>       0.25000000       0.50000000       0.88811873 </v>
    <v>       0.75000000       0.50000000       0.88811873 </v>
    <v>       0.99950493       0.25000000       0.16694261 </v>
    <v>       0.50000000       0.25000000       0.16743769 </v>
    <v>       0.00000000       0.75000000       0.16743769 </v>
    <v>       0.50000000       0.75000000       0.16743769 </v>
    <v>       0.00000000       0.25000000       0.50077102 </v>
    <v>       0.50000000       0.25000000       0.50077102 </v>
    <v>       0.00000000       0.75000000       0.50077102 </v>
    <v>       0.50000000       0.75000000       0.50077102 </v>
    <v>       0.00000000       0.25000000       0.83410435 </v>
    <v>       0.50000000       0.25000000       0.83410435 </v>
    <v>       0.00000000       0.75000000       0.83410435 </v>
    <v>       0.50000000       0.75000000       0.83410435 </v>
    <v>       0.25000000       0.25000000       0.00076332 </v>
    <v>       0.75000000       0.25000000       0.00076332 </v>
    <v>       0.25000000       0.75000000       0.00076332 </v>
    <v>       0.75000000       0.75000000       0.00076332 </v>
    <v>       0.25000000       0.25000000       0.33409665 </v>
    <v>       0.75000000       0.25000000       0.33409665 </v>
    <v>       0.25000000       0.75000000       0.33409665 </v>
    <v>       0.75000000       0.75000000       0.33409665 </v>
    <v>       0.25000000       0.25000000       0.66742999 </v>
    <v>       0.75000000       0.25000000       0.66742999 </v>
    <v>       0.25000000       0.75000000       0.66742999 </v>
    <v>       0.75000000       0.75000000       0.66742999 </v>
   </varray>
  </structure>
  <varray name="forces" >
   <v>       0.00077758      -0.00009092      -0.00025736 </v>
   <v>       0.00243411       0.00131808      -0.00373856 </v>
   <v>       0.00003465       0.00004152      -0.00009270 </v>
   <v>       0.00000365       0.00014601      -0.00024429 </v>
   <v>       0.00012149       0.00008594       0.00017489 </v>
   <v>       0.00007308       0.00009511       0.00026486 </v>
   <v>      -0.00001324       0.00008658      -0.00003362 </v>
   <v>      -0.00007358       0.00015294       0.00007266 </v>
   <v>       0.00032332       0.00004533      -0.00004294 </v>
   <v>      -0.00088686      -0.00181258      -0.00730341 </v>
   <v>      -0.00003545       0.00003407      -0.00003259 </v>
   <v>       0.00013536      -0.00022427       0.00006844 </v>
   <v>      -0.00030112      -0.00416318      -0.00755269 </v>
   <v>       0.00029704      -0.00007589       0.00003227 </v>
   <v>       0.00001093      -0.00013933      -0.00014325 </v>
   <v>       0.00003882      -0.00014787      -0.00002342 </v>
   <v>       0.00008632      -0.00013015       0.00027984 </v>
   <v>       0.00017657      -0.00006963       0.00017707 </v>
   <v>       0.00000426      -0.00009664       0.00009097 </v>
   <v>       0.00001633      -0.00004960      -0.00001077 </v>
   <v>       0.00159340       0.00021998      -0.00190343 </v>
   <v>       0.00087744      -0.00027997      -0.00012854 </v>
   <v>      -0.00013193       0.00053833       0.00018015 </v>
   <v>       0.00003600      -0.00006913      -0.00005451 </v>
   <v>       0.00020244       0.00021845      -0.00022159 </v>
   <v>      -0.00056314       0.00057543      -0.00025047 </v>
   <v>       0.00005622      -0.00003528      -0.00002957 </v>
   <v>       0.00016539       0.00013927       0.00014128 </v>
   <v>       0.00015713       0.00038560       0.00005743 </v>
   <v>       0.00018685      -0.00014918      -0.00018762 </v>
   <v>       0.00004379      -0.00009448       0.00009927 </v>
   <v>      -0.00006055      -0.00001174      -0.00002359 </v>
   <v>       0.00005800       0.00002366       0.00013226 </v>
   <v>      -0.00002513       0.00005577       0.00012142 </v>
   <v>       0.00007918      -0.00001411       0.00010862 </v>
   <v>       0.00003593      -0.00002178       0.00016515 </v>
   <v>      -0.00018628       0.00000990       0.00041976 </v>
   <v>       0.00007931       0.00042032       0.00011321 </v>
   <v>      -0.00021931       0.00006009      -0.00010405 </v>
   <v>       0.00008276      -0.00007231       0.00011538 </v>
   <v>      -0.00029599       0.00018616      -0.00036712 </v>
   <v>       0.00007047       0.00004949       0.00013576 </v>
   <v>       0.00020318      -0.00009846      -0.00002310 </v>
   <v>       0.00010711      -0.00016463      -0.00003751 </v>
   <v>       0.00000605       0.00002086       0.00006955 </v>
   <v>      -0.00000713      -0.00002665       0.00007538 </v>
   <v>       0.00003202      -0.00002524       0.00015656 </v>
   <v>       0.00005849      -0.00007434       0.00007000 </v>
   <v>      -0.00821129      -0.00566519       0.00091054 </v>
   <v>      -0.00011634       0.00002933      -0.00017465 </v>
   <v>      -0.00007881      -0.00003852      -0.00008794 </v>
   <v>       0.00001423       0.00001727      -0.00001263 </v>
   <v>       0.00031636      -0.00000739       0.00075415 </v>
   <v>       0.00030831      -0.00012506      -0.00032680 </v>
   <v>       0.00006705       0.00000719      -0.00001173 </v>
   <v>       0.00002910      -0.00000383      -0.00001396 </v>
   <v>      -0.00027316       0.00006810       0.00027986 </v>
   <v>       0.00035124      -0.00025422       0.00057181 </v>
   <v>      -0.00003388      -0.00002766      -0.00001088 </v>
   <v>       0.00001545       0.00004452       0.00001993 </v>
   <v>      -0.00015091      -0.00014477      -0.00004411 </v>
   <v>      -0.00756612      -0.00601357       0.00224368 </v>
   <v>      -0.00001682       0.00010410      -0.00006584 </v>
   <v>       0.00005064      -0.00006944       0.00000861 </v>
   <v>       0.00029564      -0.00024065       0.00064613 </v>
   <v>      -0.00023377       0.00004025       0.00029541 </v>
   <v>       0.00005385       0.00002920       0.00001108 </v>
   <v>      -0.00004566      -0.00000653       0.00001266 </v>
   <v>       0.00030023      -0.00012160      -0.00021797 </v>
   <v>       0.00028448       0.00004136       0.00079034 </v>
   <v>       0.00002537      -0.00002681      -0.00000733 </v>
   <v>       0.00007593      -0.00005868       0.00005383 </v>
   <v>       0.00011906       0.00008144       0.00004578 </v>
   <v>       0.00249086      -0.00225609       0.00115591 </v>
   <v>       0.00016324       0.00000614       0.00000142 </v>
   <v>       0.00005741       0.00001187      -0.00017216 </v>
   <v>       0.00015310       0.00002202       0.00004244 </v>
   <v>       0.00009515       0.00000437       0.00012938 </v>
   <v>       0.00009533       0.00001307       0.00003639 </v>
   <v>      -0.00001716      -0.00006195       0.00026743 </v>
   <v>       0.00006672      -0.00005698       0.00000342 </v>
   <v>      -0.00011638       0.00023478      -0.00018968 </v>
   <v>       0.00003851      -0.00000370       0.00000411 </v>
   <v>      -0.00001293       0.00000191      -0.00004336 </v>
   <v>      -0.00412955       0.01030839      -0.00235176 </v>
   <v>       0.00010595       0.00002522      -0.00010054 </v>
   <v>      -0.00017359      -0.00023728      -0.00026217 </v>
   <v>       0.00025912      -0.00002401      -0.00003659 </v>
   <v>      -0.00013055      -0.00002534       0.00008407 </v>
   <v>       0.00000373      -0.00009687       0.00006793 </v>
   <v>       0.00016010       0.00016156       0.00032522 </v>
   <v>       0.00004016       0.00000590       0.00003494 </v>
   <v>      -0.00012065      -0.00011679      -0.00012271 </v>
   <v>       0.00000010      -0.00000891       0.00004874 </v>
   <v>      -0.00016740      -0.00004024       0.00034438 </v>
   <v>       0.00007395      -0.00003663       0.00003957 </v>
   <v>       0.00181343      -0.00340180      -0.00080817 </v>
   <v>      -0.00010124      -0.00008705      -0.00008152 </v>
   <v>       0.00088241       0.00262015      -0.00170657 </v>
   <v>      -0.00011122      -0.00011051      -0.00009053 </v>
   <v>       0.00027369       0.00119983      -0.00131642 </v>
   <v>      -0.00027219       0.00002668      -0.00003701 </v>
   <v>      -0.00075442      -0.00144796      -0.00230592 </v>
   <v>      -0.00033738      -0.00010311      -0.00009577 </v>
   <v>      -0.00002787      -0.00004185      -0.00054155 </v>
   <v>      -0.00001851      -0.00013612      -0.00015006 </v>
   <v>      -0.00002202      -0.00012077      -0.00053508 </v>
   <v>      -0.00011561      -0.00006270      -0.00024279 </v>
   <v>      -0.00033071       0.00055855       0.00003041 </v>
   <v>      -0.00062040       0.00028842      -0.00024168 </v>
   <v>      -0.00087242      -0.00045890       0.00054781 </v>
   <v>      -0.00116544       0.00065482       0.00028113 </v>
   <v>      -0.00012275       0.00003955      -0.00014696 </v>
   <v>      -0.00001789      -0.00001733      -0.00004775 </v>
   <v>      -0.00021554       0.00013950      -0.00005883 </v>
   <v>      -0.00011017       0.00004352       0.00004134 </v>
   <v>       0.00003260       0.00024298       0.00002740 </v>
   <v>      -0.00013428      -0.00008576      -0.00013492 </v>
   <v>       0.00013148       0.00006555      -0.00006830 </v>
   <v>      -0.00003512       0.00050330      -0.00022960 </v>
   <v>       0.02777380       0.00257997       0.03070599 </v>
   <v>      -0.00047112      -0.00013648      -0.00001336 </v>
   <v>      -0.00019938      -0.00020945       0.00046154 </v>
   <v>      -0.00008876      -0.00001817       0.00001701 </v>
   <v>      -0.00025918      -0.00009789      -0.00241962 </v>
   <v>      -0.00110195      -0.00033729      -0.00043384 </v>
   <v>       0.00010075      -0.00012392      -0.00034229 </v>
   <v>       0.00002822      -0.00003424      -0.00004736 </v>
   <v>      -0.00026408      -0.00001042      -0.00244902 </v>
   <v>      -0.00111038      -0.00049775      -0.00043394 </v>
   <v>       0.00009973       0.00002022      -0.00034026 </v>
   <v>       0.00002799      -0.00006909      -0.00004628 </v>
   <v>      -0.00100445       0.00082616       0.00147290 </v>
   <v>      -0.00500429       0.00196988      -0.00275396 </v>
   <v>       0.00005416       0.00011427       0.00012001 </v>
   <v>      -0.00010071       0.00007480       0.00001385 </v>
   <v>      -0.00513093       0.00184311      -0.00252245 </v>
   <v>      -0.00079018       0.00059600       0.00128354 </v>
   <v>      -0.00007948       0.00015869      -0.00000785 </v>
   <v>       0.00003225       0.00027644       0.00013962 </v>
   <v>      -0.00020385       0.00024014      -0.00001668 </v>
   <v>      -0.00025196       0.00016678       0.00003108 </v>
   <v>      -0.00011172       0.00006047       0.00001928 </v>
   <v>      -0.00007330       0.00003798      -0.00001838 </v>
  </varray>
  <varray name="stress" >
   <v>      -0.17135407       0.00517102      -0.00186845 </v>
   <v>       0.00517112      -0.17209708       0.00064267 </v>
   <v>      -0.00186855       0.00064275      -0.16809767 </v>
  </varray>
  <energy>
   <i name="e_fr_energy">   -505.12820254 </i>
   <i name="e_wo_entrp">   -505.12059158 </i>
   <i name="e_0_energy">     -0.01522192 </i>
  </energy>
  <time name="totalsc">16966.8817009.38</time>
  <eigenvalues>
   <array>
    <dimension dim="1">band</dimension>
    <dimension dim="2">kpoint</dimension>
    <dimension dim="3">spin</dimension>
    <field>eigene</field>
    <field>occ</field>
    <set>
     <set comment="spin 1">
      <set comment="kpoint 1">
       <r>   -7.4639    1.0000 </r>
       <r>   -7.2296    1.0000 </r>
       <r>   -7.2294    1.0000 </r>
       <r>   -7.2158    1.0000 </r>
       <r>   -7.2156    1.0000 </r>
       <r>   -7.1644    1.0000 </r>
       <r>   -7.1642    1.0000 </r>
       <r>   -7.0697    1.0000 </r>
       <r>   -7.0696    1.0000 </r>
       <r>   -7.0695    1.0000 </r>
       <r>   -7.0693    1.0000 </r>
       <r>   -7.0092    1.0000 </r>
       <r>   -7.0091    1.0000 </r>
       <r>   -7.0091    1.0000 </r>
       <r>   -7.0088    1.0000 </r>
       <r>   -6.9939    1.0000 </r>
       <r>   -6.9939    1.0000 </r>
       <r>   -6.9939    1.0000 </r>
       <r>   -6.9935    1.0000 </r>
       <r>   -6.9476    1.0000 </r>
       <r>   -6.9352    1.0000 </r>
       <r>   -6.9351    1.0000 </r>
       <r>   -6.9193    1.0000 </r>
       <r>   -6.9192    1.0000 </r>
       <r>   -6.9192    1.0000 </r>
       <r>   -6.9191    1.0000 </r>
       <r>   -6.9190    1.0000 </r>
       <r>   -6.9190    1.0000 </r>
       <r>   -6.9190    1.0000 </r>
       <r>   -6.9184    1.0000 </r>
       <r>   -6.8367    1.0000 </r>
       <r>   -6.8367    1.0000 </r>
       <r>   -6.8366    1.0000 </r>
       <r>   -6.8364    1.0000 </r>
       <r>   -6.8238    1.0000 </r>
       <r>   -6.8181    1.0000 </r>
       <r>   -6.8179    1.0000 </r>
       <r>   -6.7727    1.0000 </r>
       <r>   -6.7724    1.0000 </r>
       <r>   -6.7670    1.0000 </r>
       <r>   -6.7670    1.0000 </r>
       <r>   -6.7668    1.0000 </r>
       <r>   -6.7663    1.0000 </r>
       <r>   -6.7547    1.0000 </r>
       <r>   -6.7545    1.0000 </r>
       <r>   -6.7400    1.0000 </r>
       <r>   -6.7397    1.0000 </r>
       <r>   -6.6843    1.0000 </r>
       <r>   -0.3461    1.0000 </r>
       <r>    0.0940    1.0000 </r>
       <r>    0.0941    1.0000 </r>
       <r>    0.0942    1.0000 </r>
       <r>    0.0942    1.0000 </r>
       <r>    0.0943    1.0000 </r>
       <r>    0.0944    1.0000 </r>
       <r>    0.0946    1.0000 </r>
       <r>    0.0947    1.0000 </r>
       <r>    0.1075    1.0000 </r>
       <r>    0.1077    1.0000 </r>
       <r>    0.1079    1.0000 </r>
       <r>    0.1080    1.0000 </r>
       <r>    0.1521    1.0000 </r>
       <r>    0.1523    1.0000 </r>
       <r>    0.1523    1.0000 </r>
       <r>    0.1525    1.0000 </r>
       <r>    0.1581    1.0000 </r>
       <r>    0.1582    1.0000 </r>
       <r>    0.1596    1.0000 </r>
       <r>    0.1596    1.0000 </r>
       <r>    0.2008    1.0000 </r>
       <r>    0.2009    1.0000 </r>
       <r>    0.2010    1.0000 </r>
       <r>    0.2012    1.0000 </r>
       <r>    0.2366    1.0000 </r>
       <r>    0.2369    1.0000 </r>
       <r>    0.2567    1.0000 </r>
       <r>    0.2570    1.0000 </r>
       <r>    0.2821    1.0000 </r>
       <r>    0.3007    1.0000 </r>
       <r>    0.3009    1.0000 </r>
       <r>    0.3229    1.0000 </r>
       <r>    0.4471    1.0000 </r>
       <r>    0.4473    1.0000 </r>
       <r>    0.4509    1.0000 </r>
       <r>    0.4511    1.0000 </r>
       <r>    0.4572    1.0000 </r>
       <r>    0.4574    1.0000 </r>
       <r>    0.4656    1.0000 </r>
       <r>    0.4657    1.0000 </r>
       <r>    0.4658    1.0000 </r>
       <r>    0.4660    1.0000 </r>
       <r>    0.4699    1.0000 </r>
       <r>    0.4702    1.0000 </r>
       <r>    0.4702    1.0000 </r>
       <r>    0.4705    1.0000 </r>
       <r>    0.5111    1.0000 </r>
       <r>    0.5113    1.0000 </r>
       <r>    0.5261    1.0000 </r>
       <r>    0.5262    1.0000 </r>
       <r>    0.5264    1.0000 </r>
       <r>    0.5266    1.0000 </r>
       <r>    0.5972    1.0000 </r>
       <r>    0.6017    1.0000 </r>
       <r>    0.6548    1.0000 </r>
       <r>    0.6549    1.0000 </r>
       <r>    0.6553    1.0000 </r>
       <r>    0.6555    1.0000 </r>
       <r>    0.6617    1.0000 </r>
       <r>    0.6617    1.0000 </r>
       <r>    0.6878    1.0000 </r>
       <r>    0.6879    1.0000 </r>
       <r>    0.7017    1.0000 </r>
       <r>    0.7019    1.0000 </r>
       <r>    0.7020    1.0000 </r>
       <r>    0.7025    1.0000 </r>
       <r>    0.7206    1.0000 </r>
       <r>    0.7208    1.0000 </r>
       <r>    0.7408    1.0000 </r>
       <r>    0.7412    1.0000 </r>
       <r>    0.7486    1.0000 </r>
       <r>    0.8021    1.0000 </r>
       <r>    0.8141    1.0000 </r>
       <r>    0.8144    1.0000 </r>
       <r>    0.8145    1.0000 </r>
       <r>    0.8147    1.0000 </r>
       <r>    0.8302    1.0000 </r>
       <r>    0.8303    1.0000 </r>
       <r>    0.8304    1.0000 </r>
       <r>    0.8306    1.0000 </r>
       <r>    0.8516    1.0000 </r>
       <r>    0.8520    1.0000 </r>
       <r>    0.8520    1.0000 </r>
       <r>    0.8520    1.0000 </r>
       <r>    0.8521    1.0000 </r>
       <r>    0.8521    1.0000 </r>
       <r>    0.8522    1.0000 </r>
       <r>    0.8527    1.0000 </r>
       <r>    0.8950    1.0000 </r>
       <r>    0.8977    1.0000 </r>
       <r>    0.8978    1.0000 </r>
       <r>    0.8993    1.0000 </r>
       <r>    0.8994    1.0000 </r>
       <r>    0.8995    1.0000 </r>
       <r>    0.8997    1.0000 </r>
       <r>    0.9204    1.0000 </r>
       <r>    0.9459    1.0000 </r>
       <r>    0.9463    1.0000 </r>
       <r>    1.0706    1.0000 </r>
       <r>    1.0708    1.0000 </r>
       <r>    1.0709    1.0000 </r>
       <r>    1.0712    1.0000 </r>
       <r>    1.0843    1.0000 </r>
       <r>    1.0847    1.0000 </r>
       <r>    1.0847    1.0000 </r>
       <r>    1.0851    1.0000 </r>
       <r>    1.0851    1.0000 </r>
       <r>    1.0853    1.0000 </r>
       <r>    1.1008    1.0000 </r>
       <r>    1.1013    1.0000 </r>
       <r>    1.1457    1.0000 </r>
       <r>    1.1459    1.0000 </r>
       <r>    1.1460    1.0000 </r>
       <r>    1.1463    1.0000 </r>
       <r>    1.1616    1.0000 </r>
       <r>    1.1618    1.0000 </r>
       <r>    1.1619    1.0000 </r>
       <r>    1.1622    1.0000 </r>
       <r>    1.1757    1.0000 </r>
       <r>    1.1760    1.0000 </r>
       <r>    1.1998    1.0000 </r>
       <r>    1.2239    1.0000 </r>
       <r>    1.2243    1.0000 </r>
       <r>    1.2296    1.0000 </r>
       <r>    1.2297    1.0000 </r>
       <r>    1.2298    1.0000 </r>
       <r>    1.2299    1.0000 </r>
       <r>    1.2299    1.0000 </r>
       <r>    1.2300    1.0000 </r>
       <r>    1.2301    1.0000 </r>
       <r>    1.2306    1.0000 </r>
       <r>    1.2370    1.0000 </r>
       <r>    1.2374    1.0000 </r>
       <r>    1.3413    1.0000 </r>
       <r>    1.3415    1.0000 </r>
       <r>    1.3415    1.0000 </r>
       <r>    1.3418    1.0000 </r>
       <r>    1.3652    1.0000 </r>
       <r>    1.3664    1.0000 </r>
       <r>    1.3665    1.0000 </r>
       <r>    1.3671    1.0000 </r>
       <r>    1.3672    1.0000 </r>
       <r>    1.3734    1.0000 </r>
       <r>    1.3735    1.0000 </r>
       <r>    1.3735    1.0000 </r>
       <r>    1.3736    1.0000 </r>
       <r>    1.3776    1.0000 </r>
       <r>    1.3779    1.0000 </r>
       <r>    1.3953    1.0000 </r>
       <r>    1.3954    1.0000 </r>
       <r>    1.3955    1.0000 </r>
       <r>    1.3956    1.0000 </r>
       <r>    1.3962    1.0000 </r>
       <r>    1.4062    1.0000 </r>
       <r>    1.4201    1.0000 </r>
       <r>    1.4205    1.0000 </r>
       <r>    1.4366    1.0000 </r>
       <r>    1.4367    1.0000 </r>
       <r>    1.4408    1.0000 </r>
       <r>    1.4459    1.0000 </r>
       <r>    1.4517    1.0000 </r>
       <r>    1.4518    1.0000 </r>
       <r>    1.4570    1.0000 </r>
       <r>    1.4571    1.0000 </r>
       <r>    1.4571    1.0000 </r>
       <r>    1.4571    1.0000 </r>
       <r>    1.4914    1.0000 </r>
       <r>    1.4914    1.0000 </r>
       <r>    1.5271    1.0000 </r>
[...]
       <r>    -1.7756     0.0000    96.0000 </r>
       <r>    -1.7039     0.0000    96.0000 </r>
       <r>    -1.6323     0.0000    96.0000 </r>
       <r>    -1.5606     0.0000    96.0000 </r>
       <r>    -1.4889     0.0000    96.0000 </r>
       <r>    -1.4173     0.0000    96.0000 </r>
       <r>    -1.3456     0.0000    96.0000 </r>
       <r>    -1.2739     0.0000    96.0000 </r>
       <r>    -1.2022     0.0000    96.0000 </r>
       <r>    -1.1306     0.0000    96.0000 </r>
       <r>    -1.0589     0.0000    96.0000 </r>
       <r>    -0.9872     0.0000    96.0000 </r>
       <r>    -0.9155     0.0000    96.0000 </r>
       <r>    -0.8439     0.0000    96.0000 </r>
       <r>    -0.7722     0.0000    96.0000 </r>
       <r>    -0.7005     0.0000    96.0000 </r>
       <r>    -0.6289     0.0000    96.0000 </r>
       <r>    -0.5572     0.0000    96.0000 </r>
       <r>    -0.4855     0.0001    96.0000 </r>
       <r>    -0.4138     0.0962    96.0069 </r>
       <r>    -0.3422     1.8013    96.1360 </r>
       <r>    -0.2705     1.8568    96.2691 </r>
       <r>    -0.1988     8.5543    96.8822 </r>
       <r>    -0.1271    15.3693    97.9838 </r>
       <r>    -0.0555    24.5530    99.7436 </r>
       <r>     0.0162    51.8443   103.4594 </r>
       <r>     0.0879   104.0390   110.9162 </r>
       <r>     0.1596   189.2233   124.4784 </r>
       <r>     0.2312   206.9467   139.3110 </r>
       <r>     0.3029   273.9313   158.9445 </r>
       <r>     0.3746   191.7258   172.6861 </r>
       <r>     0.4462   124.4119   181.6031 </r>
       <r>     0.5179   141.0637   191.7135 </r>
       <r>     0.5896   123.7653   200.5842 </r>
       <r>     0.6613   168.4009   212.6540 </r>
       <r>     0.7329   245.6695   230.2619 </r>
       <r>     0.8046   229.2141   246.6904 </r>
       <r>     0.8763   293.1371   267.7005 </r>
       <r>     0.9480   282.7143   287.9635 </r>
       <r>     1.0196   144.8269   298.3437 </r>
       <r>     1.0913   185.7260   311.6553 </r>
       <r>     1.1630   227.1177   327.9335 </r>
       <r>     1.2347   230.5032   344.4544 </r>
       <r>     1.3063   298.3643   365.8391 </r>
       <r>     1.3780   308.4016   387.9432 </r>
       <r>     1.4497   392.0296   416.0412 </r>
       <r>     1.5213   354.8306   441.4730 </r>
       <r>     1.5930   373.3834   468.2346 </r>
       <r>     1.6647   365.2720   494.4148 </r>
       <r>     1.7364   392.2481   522.5284 </r>
       <r>     1.8080   371.4356   549.1504 </r>
       <r>     1.8797   358.4040   574.8383 </r>
       <r>     1.9514   389.8808   602.7823 </r>
       <r>     2.0231   414.4625   632.4882 </r>
       <r>     2.0947   377.1639   659.5207 </r>
       <r>     2.1664   361.5774   685.4361 </r>
       <r>     2.2381   375.3079   712.3356 </r>
       <r>     2.3097   396.4511   740.7505 </r>
       <r>     2.3814   336.9794   764.9028 </r>
       <r>     2.4531   295.9505   786.1145 </r>
       <r>     2.5248   340.3038   810.5052 </r>
       <r>     2.5964   356.5958   836.0635 </r>
       <r>     2.6681   409.0564   865.3819 </r>
       <r>     2.7398   372.6523   892.0911 </r>
       <r>     2.8115   381.7060   919.4491 </r>
       <r>     2.8831   433.0536   950.4874 </r>
       <r>     2.9548   501.4094   986.4250 </r>
       <r>     3.0265   494.0754  1021.8370 </r>
       <r>     3.0982   363.9630  1047.9233 </r>
       <r>     3.1698   231.1410  1064.4899 </r>
       <r>     3.2415   204.6575  1079.1584 </r>
       <r>     3.3132   169.5772  1091.3125 </r>
       <r>     3.3848   136.3816  1101.0874 </r>
       <r>     3.4565   120.6715  1109.7363 </r>
       <r>     3.5282   158.6673  1121.1085 </r>
       <r>     3.5999   161.3698  1132.6744 </r>
       <r>     3.6715    99.7489  1139.8237 </r>
       <r>     3.7432    96.7316  1146.7568 </r>
       <r>     3.8149    63.7359  1151.3249 </r>
       <r>     3.8866    73.3833  1156.5845 </r>
       <r>     3.9582    72.4382  1161.7764 </r>
       <r>     4.0299    66.4973  1166.5425 </r>
       <r>     4.1016    91.9782  1173.1348 </r>
       <r>     4.1732   105.6525  1180.7073 </r>
       <r>     4.2449   112.3553  1188.7601 </r>
       <r>     4.3166    74.2867  1194.0845 </r>
       <r>     4.3883    73.0902  1199.3231 </r>
       <r>     4.4599    65.5912  1204.0242 </r>
       <r>     4.5316    93.0299  1210.6920 </r>
       <r>     4.6033    93.1841  1217.3708 </r>
       <r>     4.6750   103.1281  1224.7623 </r>
       <r>     4.7466   141.8897  1234.9320 </r>
       <r>     4.8183   135.4516  1244.6402 </r>
       <r>     4.8900    70.1691  1249.6694 </r>
       <r>     4.9617    53.8853  1253.5316 </r>
       <r>     5.0333    55.2496  1257.4915 </r>
       <r>     5.1050    89.6144  1263.9144 </r>
       <r>     5.1767   145.5487  1274.3464 </r>
       <r>     5.2483   105.3845  1281.8996 </r>
       <r>     5.3200    62.1348  1286.3530 </r>
       <r>     5.3917    60.8167  1290.7119 </r>
       <r>     5.4634    68.3566  1295.6113 </r>
       <r>     5.5350    73.1735  1300.8558 </r>
       <r>     5.6067    76.8548  1306.3643 </r>
       <r>     5.6784   113.3507  1314.4885 </r>
       <r>     5.7501   129.7948  1323.7913 </r>
       <r>     5.8217    71.3021  1328.9017 </r>
       <r>     5.8934    64.6284  1333.5338 </r>
       <r>     5.9651    57.2272  1337.6355 </r>
       <r>     6.0368    29.6027  1339.7572 </r>
       <r>     6.1084    18.7031  1341.0977 </r>
       <r>     6.1801    21.6090  1342.6465 </r>
       <r>     6.2518    16.5911  1343.8356 </r>
       <r>     6.3234     8.4634  1344.4422 </r>
       <r>     6.3951     0.8026  1344.4998 </r>
       <r>     6.4668     0.1469  1344.5103 </r>
       <r>     6.5385     2.0000  1344.6536 </r>
       <r>     6.6101     1.7189  1344.7768 </r>
       <r>     6.6818     5.9021  1345.1998 </r>
       <r>     6.7535    23.7941  1346.9052 </r>
       <r>     6.8252    25.4573  1348.7299 </r>
       <r>     6.8968    10.5854  1349.4885 </r>
       <r>     6.9685     6.3705  1349.9451 </r>
       <r>     7.0402     8.9130  1350.5840 </r>
       <r>     7.1118     4.8061  1350.9284 </r>
       <r>     7.1835    22.4108  1352.5347 </r>
       <r>     7.2552    24.0975  1354.2618 </r>
       <r>     7.3269    27.7122  1356.2480 </r>
       <r>     7.3985    32.2320  1358.5582 </r>
       <r>     7.4702    29.9930  1360.7079 </r>
       <r>     7.5419    63.5886  1365.2655 </r>
       <r>     7.6136    68.8328  1370.1990 </r>
       <r>     7.6852    26.3968  1372.0909 </r>
       <r>     7.7569    56.8171  1376.1632 </r>
       <r>     7.8286    69.7608  1381.1631 </r>
       <r>     7.9003    73.0308  1386.3975 </r>
       <r>     7.9719    76.2185  1391.8603 </r>
       <r>     8.0436    63.7967  1396.4328 </r>
       <r>     8.1153    33.6138  1398.8420 </r>
       <r>     8.1869    17.8495  1400.1213 </r>
       <r>     8.2586     7.9044  1400.6879 </r>
       <r>     8.3303    11.8437  1401.5367 </r>
       <r>     8.4020    52.0867  1405.2700 </r>
       <r>     8.4736    32.2737  1407.5831 </r>
       <r>     8.5453    34.6008  1410.0631 </r>
       <r>     8.6170    98.2773  1417.1069 </r>
       <r>     8.6887   101.7960  1424.4030 </r>
       <r>     8.7603    57.7989  1428.5456 </r>
       <r>     8.8320    50.1580  1432.1406 </r>
       <r>     8.9037    33.6413  1434.5517 </r>
       <r>     8.9753    45.8299  1437.8365 </r>
       <r>     9.0470    29.2536  1439.9332 </r>
       <r>     9.1187    21.8051  1441.4961 </r>
       <r>     9.1904     9.9798  1442.2113 </r>
       <r>     9.2620    18.2092  1443.5165 </r>
       <r>     9.3337    54.9314  1447.4536 </r>
       <r>     9.4054    49.1130  1450.9736 </r>
       <r>     9.4771    54.1374  1454.8538 </r>
       <r>     9.5487    37.8706  1457.5681 </r>
       <r>     9.6204    51.5268  1461.2612 </r>
       <r>     9.6921    50.1910  1464.8586 </r>
       <r>     9.7638    47.0975  1468.2342 </r>
       <r>     9.8354    54.2297  1472.1210 </r>
       <r>     9.9071    75.4994  1477.5323 </r>
       <r>     9.9788    57.1917  1481.6314 </r>
       <r>    10.0504   111.2924  1489.6081 </r>
       <r>    10.1221   115.7786  1497.9063 </r>
       <r>    10.1938    39.3454  1500.7263 </r>
       <r>    10.2655    29.9069  1502.8698 </r>
       <r>    10.3371    48.8923  1506.3741 </r>
       <r>    10.4088    59.0379  1510.6055 </r>
       <r>    10.4805    90.6245  1517.1009 </r>
       <r>    10.5522   111.9010  1525.1212 </r>
       <r>    10.6238   110.4360  1533.0365 </r>
       <r>    10.6955    92.4121  1539.6599 </r>
       <r>    10.7672    79.8335  1545.3818 </r>
       <r>    10.8389   108.0113  1553.1234 </r>
       <r>    10.9105    87.3295  1559.3825 </r>
       <r>    10.9822    64.0242  1563.9714 </r>
       <r>    11.0539    33.5634  1566.3770 </r>
       <r>    11.1255    57.6352  1570.5078 </r>
       <r>    11.1972    49.9931  1574.0910 </r>
       <r>    11.2689    46.6622  1577.4354 </r>
       <r>    11.3406    83.3914  1583.4124 </r>
       <r>    11.4122    51.5924  1587.1101 </r>
       <r>    11.4839    57.0544  1591.1994 </r>
       <r>    11.5556    88.9166  1597.5723 </r>
       <r>    11.6273    66.5601  1602.3429 </r>
       <r>    11.6989    44.0310  1605.4988 </r>
       <r>    11.7706    11.0825  1606.2931 </r>
       <r>    11.8423    15.3895  1607.3961 </r>
       <r>    11.9139    36.8490  1610.0372 </r>
       <r>    11.9856    19.5471  1611.4382 </r>
       <r>    12.0573     2.8331  1611.6412 </r>
       <r>    12.1290     4.4711  1611.9617 </r>
       <r>    12.2006     0.5325  1611.9999 </r>
       <r>    12.2723     0.0021  1612.0000 </r>
       <r>    12.3440     0.0000  1612.0000 </r>
       <r>    12.4157     0.0000  1612.0000 </r>
       <r>    12.4873     0.0000  1612.0000 </r>
       <r>    12.5590     0.0000  1612.0000 </r>
       <r>    12.6307     0.0000  1612.0000 </r>
       <r>    12.7024     0.0000  1612.0000 </r>
       <r>    12.7740     0.0000  1612.0000 </r>
       <r>    12.8457     0.0000  1612.0000 </r>
       <r>    12.9174     0.0000  1612.0000 </r>
       <r>    12.9890     0.0000  1612.0000 </r>
       <r>    13.0607     0.0000  1612.0000 </r>
      </set>
     </set>
    </array>
   </total>
  </dos>
 </calculation>
 <structure name="finalpos" >
  <crystal>
   <varray name="basis" >
    <v>      14.01039598       0.00139138       0.00000000 </v>
    <v>      -0.00150196      13.76691092       0.00000000 </v>
    <v>       0.00000000       0.00000000      14.55019386 </v>
   </varray>
   <i name="volume">   2806.43958022 </i>
   <varray name="rec_basis" >
    <v>       0.07137557       0.00000779       0.00000000 </v>
    <v>      -0.00000721       0.07263794       0.00000000 </v>
    <v>       0.00000000       0.00000000       0.06872761 </v>
   </varray>
  </crystal>
  <varray name="positions" >
   <v>       0.42987898       0.17167077       0.33247735 </v>
   <v>       0.92987898       0.17167077       0.33247735 </v>
   <v>       0.42987898       0.67167077       0.33247735 </v>
   <v>       0.92987898       0.67167077       0.33247735 </v>
   <v>       0.42987898       0.17167077       0.66581068 </v>
   <v>       0.92987898       0.17167077       0.66581068 </v>
   <v>       0.42987898       0.67167077       0.66581068 </v>
   <v>       0.92987898       0.67167077       0.66581068 </v>
   <v>       0.42987898       0.17167077       0.99914401 </v>
   <v>       0.92987898       0.17167077       0.99914401 </v>
   <v>       0.42987898       0.67167077       0.99914401 </v>
   <v>       0.92987898       0.67167077       0.99914401 </v>
   <v>       0.07012102       0.32832923       0.33247735 </v>
   <v>       0.57012102       0.32832923       0.33247735 </v>
   <v>       0.07012102       0.82832923       0.33247735 </v>
   <v>       0.57012102       0.82832923       0.33247735 </v>
   <v>       0.07012102       0.32832923       0.66581068 </v>
   <v>       0.57012102       0.32832923       0.66581068 </v>
   <v>       0.07012102       0.82832923       0.66581068 </v>
   <v>       0.57012102       0.82832923       0.66581068 </v>
   <v>       0.07012102       0.32832923       0.99914401 </v>
   <v>       0.57012102       0.32832923       0.99914401 </v>
   <v>       0.07012102       0.82832923       0.99914401 </v>
   <v>       0.57012102       0.82832923       0.99914401 </v>
   <v>       0.32012053       0.42167367       0.05641075 </v>
   <v>       0.82012053       0.42167367       0.05641075 </v>
   <v>       0.32012053       0.92167367       0.05641075 </v>
   <v>       0.82012053       0.92167367       0.05641075 </v>
   <v>       0.32012053       0.42167367       0.38974408 </v>
   <v>       0.82012053       0.42167367       0.38974408 </v>
   <v>       0.32012053       0.92167367       0.38974408 </v>
   <v>       0.82012053       0.92167367       0.38974408 </v>
   <v>       0.32012053       0.42167367       0.72307741 </v>
   <v>       0.82012053       0.42167367       0.72307741 </v>
   <v>       0.32012053       0.92167367       0.72307741 </v>
   <v>       0.82012053       0.92167367       0.72307741 </v>
   <v>       0.17987947       0.07832633       0.05641075 </v>
   <v>       0.67987947       0.07832633       0.05641075 </v>
   <v>       0.17987947       0.57832633       0.05641075 </v>
   <v>       0.67987947       0.57832633       0.05641075 </v>
   <v>       0.17987947       0.07832633       0.38974408 </v>
   <v>       0.67987947       0.07832633       0.38974408 </v>
   <v>       0.17987947       0.57832633       0.38974408 </v>
   <v>       0.67987947       0.57832633       0.38974408 </v>
   <v>       0.17987947       0.07832633       0.72307741 </v>
   <v>       0.67987947       0.07832633       0.72307741 </v>
   <v>       0.17987947       0.57832633       0.72307741 </v>
   <v>       0.67987947       0.57832633       0.72307741 </v>
   <v>       0.17987776       0.32832369       0.16580856 </v>
   <v>       0.67987776       0.32832369       0.16580856 </v>
   <v>       0.17987776       0.82832369       0.16580856 </v>
   <v>       0.67987776       0.82832369       0.16580856 </v>
   <v>       0.17987776       0.32832369       0.49914189 </v>
   <v>       0.67987776       0.32832369       0.49914189 </v>
   <v>       0.17987776       0.82832369       0.49914189 </v>
   <v>       0.67987776       0.82832369       0.49914189 </v>
   <v>       0.17987776       0.32832369       0.83247522 </v>
   <v>       0.67987776       0.32832369       0.83247522 </v>
   <v>       0.17987776       0.82832369       0.83247522 </v>
   <v>       0.67987776       0.82832369       0.83247522 </v>
   <v>       0.32012224       0.17167631       0.16580856 </v>
   <v>       0.82012224       0.17167631       0.16580856 </v>
   <v>       0.32012224       0.67167631       0.16580856 </v>
   <v>       0.82012224       0.67167631       0.16580856 </v>
   <v>       0.32012224       0.17167631       0.49914189 </v>
   <v>       0.82012224       0.17167631       0.49914189 </v>
   <v>       0.32012224       0.67167631       0.49914189 </v>
   <v>       0.82012224       0.67167631       0.49914189 </v>
   <v>       0.32012224       0.17167631       0.83247522 </v>
   <v>       0.82012224       0.17167631       0.83247522 </v>
   <v>       0.32012224       0.67167631       0.83247522 </v>
   <v>       0.82012224       0.67167631       0.83247522 </v>
   <v>       0.42987656       0.42167494       0.22308000 </v>
   <v>       0.92987656       0.42167494       0.22308000 </v>
   <v>       0.42987656       0.92167494       0.22308000 </v>
   <v>       0.92987656       0.92167494       0.22308000 </v>
   <v>       0.42987656       0.42167494       0.55641333 </v>
   <v>       0.92987656       0.42167494       0.55641333 </v>
   <v>       0.42987656       0.92167494       0.55641333 </v>
   <v>       0.92987656       0.92167494       0.55641333 </v>
   <v>       0.42987656       0.42167494       0.88974666 </v>
   <v>       0.92987656       0.42167494       0.88974666 </v>
   <v>       0.42987656       0.92167494       0.88974666 </v>
   <v>       0.92987656       0.92167494       0.88974666 </v>
   <v>       0.07012344       0.07832506       0.22308000 </v>
   <v>       0.57012344       0.07832506       0.22308000 </v>
   <v>       0.07012344       0.57832506       0.22308000 </v>
   <v>       0.57012344       0.57832506       0.22308000 </v>
   <v>       0.07012344       0.07832506       0.55641333 </v>
   <v>       0.57012344       0.07832506       0.55641333 </v>
   <v>       0.07012344       0.57832506       0.55641333 </v>
   <v>       0.57012344       0.57832506       0.55641333 </v>
   <v>       0.07012344       0.07832506       0.88974666 </v>
   <v>       0.57012344       0.07832506       0.88974666 </v>
   <v>       0.07012344       0.57832506       0.88974666 </v>
   <v>       0.57012344       0.57832506       0.88974666 </v>
   <v>       0.00000000       0.00000000       0.05479365 </v>
   <v>       0.50000000       0.00000000       0.05479365 </v>
   <v>       0.00000000       0.50000000       0.05479365 </v>
   <v>       0.50000000       0.50000000       0.05479365 </v>
   <v>       0.00000000       0.00000000       0.38812698 </v>
   <v>       0.50000000       0.00000000       0.38812698 </v>
   <v>       0.00000000       0.50000000       0.38812698 </v>
   <v>       0.50000000       0.50000000       0.38812698 </v>
   <v>       0.00000000       0.00000000       0.72146032 </v>
   <v>       0.50000000       0.00000000       0.72146032 </v>
   <v>       0.00000000       0.50000000       0.72146032 </v>
   <v>       0.50000000       0.50000000       0.72146032 </v>
   <v>       0.25000000       0.00000000       0.22145206 </v>
   <v>       0.75000000       0.00000000       0.22145206 </v>
   <v>       0.25000000       0.50000000       0.22145206 </v>
   <v>       0.75000000       0.50000000       0.22145206 </v>
   <v>       0.25000000       0.00000000       0.55478539 </v>
   <v>       0.75000000       0.00000000       0.55478539 </v>
   <v>       0.25000000       0.50000000       0.55478539 </v>
   <v>       0.75000000       0.50000000       0.55478539 </v>
   <v>       0.25000000       0.00000000       0.88811873 </v>
   <v>       0.75000000       0.00000000       0.88811873 </v>
   <v>       0.25000000       0.50000000       0.88811873 </v>
   <v>       0.75000000       0.50000000       0.88811873 </v>
   <v>       0.99950493       0.25000000       0.16694261 </v>
   <v>       0.50000000       0.25000000       0.16743769 </v>
   <v>       0.00000000       0.75000000       0.16743769 </v>
   <v>       0.50000000       0.75000000       0.16743769 </v>
   <v>       0.00000000       0.25000000       0.50077102 </v>
   <v>       0.50000000       0.25000000       0.50077102 </v>
   <v>       0.00000000       0.75000000       0.50077102 </v>
   <v>       0.50000000       0.75000000       0.50077102 </v>
   <v>       0.00000000       0.25000000       0.83410435 </v>
   <v>       0.50000000       0.25000000       0.83410435 </v>
   <v>       0.00000000       0.75000000       0.83410435 </v>
   <v>       0.50000000       0.75000000       0.83410435 </v>
   <v>       0.25000000       0.25000000       0.00076332 </v>
   <v>       0.75000000       0.25000000       0.00076332 </v>
   <v>       0.25000000       0.75000000       0.00076332 </v>
   <v>       0.75000000       0.75000000       0.00076332 </v>
   <v>       0.25000000       0.25000000       0.33409665 </v>
   <v>       0.75000000       0.25000000       0.33409665 </v>
   <v>       0.25000000       0.75000000       0.33409665 </v>
   <v>       0.75000000       0.75000000       0.33409665 </v>
   <v>       0.25000000       0.25000000       0.66742999 </v>
   <v>       0.75000000       0.25000000       0.66742999 </v>
   <v>       0.25000000       0.75000000       0.66742999 </v>
   <v>       0.75000000       0.75000000       0.66742999 </v>
  </varray>
 </structure>
</modeling>
