 144 144   0   0
  0.1948916E+02  0.1401040E-08  0.1376691E-08  0.1455019E-08  0.5000000E-15
  1.000000000000000E-004
  CAR 
 unknown system                          
     13.06010179     -8.44125215  301      6.26450544      1.00000000
     -8.441  0.0000E+00  0.0000E+00
     -8.370  0.0000E+00  0.0000E+00
     -8.298  0.0000E+00  0.0000E+00
     -8.226  0.0000E+00  0.0000E+00
     -8.155  0.0000E+00  0.0000E+00
     -8.083  0.0000E+00  0.0000E+00
     -8.011  0.0000E+00  0.0000E+00
     -7.940  0.0000E+00  0.0000E+00
     -7.868  0.0000E+00  0.0000E+00
     -7.796  0.0000E+00  0.0000E+00
     -7.725  0.2941E-12  0.2108E-13
     -7.653  0.1583E-06  0.1134E-07
     -7.581  0.1587E-02  0.1137E-03
     -7.510  0.3518E+00  0.2532E-01
     -7.438  0.4313E+01  0.3345E+00
     -7.366  0.1911E+02  0.1704E+01
     -7.295  0.3786E+02  0.4418E+01
     -7.223  0.3949E+02  0.7248E+01
     -7.151  0.6436E+02  0.1186E+02
     -7.079  0.1004E+03  0.1906E+02
     -7.008  0.1265E+03  0.2812E+02
     -6.936  0.2083E+03  0.4305E+02
     -6.864  0.2227E+03  0.5902E+02
     -6.793  0.2576E+03  0.7748E+02
     -6.721  0.2069E+03  0.9231E+02
     -6.649  0.4927E+02  0.9584E+02
     -6.578  0.2202E+01  0.9600E+02
     -6.506  0.7872E-02  0.9600E+02
     -6.434  0.9828E-06  0.9600E+02
     -6.363  0.2874E-11  0.9600E+02
     -6.291  0.0000E+00  0.9600E+02
     -6.219  0.0000E+00  0.9600E+02
     -6.148  0.0000E+00  0.9600E+02
     -6.076  0.0000E+00  0.9600E+02
     -6.004  0.0000E+00  0.9600E+02
     -5.933  0.0000E+00  0.9600E+02
     -5.861  0.0000E+00  0.9600E+02
     -5.789  0.0000E+00  0.9600E+02
     -5.718  0.0000E+00  0.9600E+02
     -5.646  0.0000E+00  0.9600E+02
     -5.574  0.0000E+00  0.9600E+02
     -5.503  0.0000E+00  0.9600E+02
     -5.431  0.0000E+00  0.9600E+02
     -5.359  0.0000E+00  0.9600E+02
     -5.288  0.0000E+00  0.9600E+02
     -5.216  0.0000E+00  0.9600E+02
     -5.144  0.0000E+00  0.9600E+02
     -5.073  0.0000E+00  0.9600E+02
     -5.001  0.0000E+00  0.9600E+02
     -4.929  0.0000E+00  0.9600E+02
     -4.858  0.0000E+00  0.9600E+02
     -4.786  0.0000E+00  0.9600E+02
     -4.714  0.0000E+00  0.9600E+02
     -4.643  0.0000E+00  0.9600E+02
     -4.571  0.0000E+00  0.9600E+02
     -4.499  0.0000E+00  0.9600E+02
     -4.428  0.0000E+00  0.9600E+02
     -4.356  0.0000E+00  0.9600E+02
     -4.284  0.0000E+00  0.9600E+02
     -4.213  0.0000E+00  0.9600E+02
     -4.141  0.0000E+00  0.9600E+02
     -4.069  0.0000E+00  0.9600E+02
     -3.998  0.0000E+00  0.9600E+02
     -3.926  0.0000E+00  0.9600E+02
     -3.854  0.0000E+00  0.9600E+02
     -3.783  0.0000E+00  0.9600E+02
     -3.711  0.0000E+00  0.9600E+02
     -3.639  0.0000E+00  0.9600E+02
     -3.568  0.0000E+00  0.9600E+02
     -3.496  0.0000E+00  0.9600E+02
     -3.424  0.0000E+00  0.9600E+02
     -3.353  0.0000E+00  0.9600E+02
     -3.281  0.0000E+00  0.9600E+02
     -3.209  0.0000E+00  0.9600E+02
     -3.138  0.0000E+00  0.9600E+02
     -3.066  0.0000E+00  0.9600E+02
     -2.994  0.0000E+00  0.9600E+02
     -2.923  0.0000E+00  0.9600E+02
     -2.851  0.0000E+00  0.9600E+02
     -2.779  0.0000E+00  0.9600E+02
     -2.708  0.0000E+00  0.9600E+02
     -2.636  0.0000E+00  0.9600E+02
     -2.564  0.0000E+00  0.9600E+02
     -2.493  0.0000E+00  0.9600E+02
     -2.421  0.0000E+00  0.9600E+02
     -2.349  0.0000E+00  0.9600E+02
     -2.278  0.0000E+00  0.9600E+02
     -2.206  0.0000E+00  0.9600E+02
     -2.134  0.0000E+00  0.9600E+02
     -2.063  0.0000E+00  0.9600E+02
     -1.991  0.0000E+00  0.9600E+02
     -1.919  0.0000E+00  0.9600E+02
     -1.848  0.0000E+00  0.9600E+02
     -1.776  0.0000E+00  0.9600E+02
     -1.704  0.0000E+00  0.9600E+02
     -1.632  0.0000E+00  0.9600E+02
     -1.561  0.0000E+00  0.9600E+02
     -1.489  0.0000E+00  0.9600E+02
     -1.417  0.0000E+00  0.9600E+02
     -1.346  0.0000E+00  0.9600E+02
     -1.274  0.0000E+00  0.9600E+02
     -1.202  0.0000E+00  0.9600E+02
     -1.131  0.0000E+00  0.9600E+02
     -1.059  0.0000E+00  0.9600E+02
     -0.987  0.0000E+00  0.9600E+02
     -0.916  0.0000E+00  0.9600E+02
     -0.844  0.0000E+00  0.9600E+02
     -0.772  0.0000E+00  0.9600E+02
     -0.701  0.0000E+00  0.9600E+02
     -0.629  0.2130E-14  0.9600E+02
     -0.557  0.3960E-08  0.9600E+02
     -0.486  0.1363E-03  0.9600E+02
     -0.414  0.9492E-01  0.9601E+02
     -0.342  0.1794E+01  0.9614E+02
     -0.271  0.1860E+01  0.9627E+02
     -0.199  0.8515E+01  0.9688E+02
     -0.127  0.1537E+02  0.9798E+02
     -0.056  0.2449E+02  0.9974E+02
      0.016  0.5173E+02  0.1034E+03
      0.088  0.1038E+03  0.1109E+03
      0.159  0.1892E+03  0.1244E+03
      0.231  0.2067E+03  0.1393E+03
      0.303  0.2741E+03  0.1589E+03
      0.374  0.1919E+03  0.1727E+03
      0.446  0.1244E+03  0.1816E+03
      0.518  0.1410E+03  0.1917E+03
      0.589  0.1239E+03  0.2006E+03
      0.661  0.1682E+03  0.2126E+03
      0.733  0.2456E+03  0.2302E+03
      0.804  0.2292E+03  0.2466E+03
      0.876  0.2929E+03  0.2676E+03
      0.948  0.2831E+03  0.2879E+03
      1.019  0.1450E+03  0.2983E+03
      1.091  0.1855E+03  0.3116E+03
      1.163  0.2271E+03  0.3279E+03
      1.234  0.2303E+03  0.3444E+03
      1.306  0.2983E+03  0.3658E+03
      1.378  0.3081E+03  0.3878E+03
      1.449  0.3919E+03  0.4159E+03
      1.521  0.3548E+03  0.4414E+03
      1.593  0.3733E+03  0.4681E+03
      1.664  0.3653E+03  0.4943E+03
      1.736  0.3921E+03  0.5224E+03
      1.808  0.3717E+03  0.5490E+03
      1.879  0.3584E+03  0.5747E+03
      1.951  0.3898E+03  0.6027E+03
      2.023  0.4145E+03  0.6324E+03
      2.094  0.3774E+03  0.6594E+03
      2.166  0.3616E+03  0.6853E+03
      2.238  0.3753E+03  0.7122E+03
      2.309  0.3966E+03  0.7407E+03
      2.381  0.3371E+03  0.7648E+03
      2.453  0.2960E+03  0.7860E+03
      2.524  0.3401E+03  0.8104E+03
      2.596  0.3563E+03  0.8359E+03
      2.668  0.4090E+03  0.8653E+03
      2.739  0.3728E+03  0.8920E+03
      2.811  0.3814E+03  0.9193E+03
      2.883  0.4329E+03  0.9503E+03
      2.954  0.5011E+03  0.9862E+03
      3.026  0.4945E+03  0.1022E+04
      3.098  0.3647E+03  0.1048E+04
      3.169  0.2315E+03  0.1064E+04
      3.241  0.2047E+03  0.1079E+04
      3.313  0.1697E+03  0.1091E+04
      3.384  0.1367E+03  0.1101E+04
      3.456  0.1205E+03  0.1110E+04
      3.528  0.1584E+03  0.1121E+04
      3.600  0.1616E+03  0.1133E+04
      3.671  0.9992E+02  0.1140E+04
      3.743  0.9669E+02  0.1147E+04
      3.815  0.6396E+02  0.1151E+04
      3.886  0.7318E+02  0.1157E+04
      3.958  0.7256E+02  0.1162E+04
      4.030  0.6632E+02  0.1167E+04
      4.101  0.9201E+02  0.1173E+04
      4.173  0.1053E+03  0.1181E+04
      4.245  0.1126E+03  0.1189E+04
      4.316  0.7442E+02  0.1194E+04
      4.388  0.7313E+02  0.1199E+04
      4.460  0.6556E+02  0.1204E+04
      4.531  0.9286E+02  0.1211E+04
      4.603  0.9323E+02  0.1217E+04
      4.675  0.1030E+03  0.1225E+04
      4.746  0.1416E+03  0.1235E+04
      4.818  0.1359E+03  0.1245E+04
      4.890  0.7052E+02  0.1250E+04
      4.961  0.5382E+02  0.1254E+04
      5.033  0.5521E+02  0.1257E+04
      5.105  0.8933E+02  0.1264E+04
      5.176  0.1452E+03  0.1274E+04
      5.248  0.1059E+03  0.1282E+04
      5.320  0.6229E+02  0.1286E+04
      5.391  0.6058E+02  0.1291E+04
      5.463  0.6853E+02  0.1296E+04
      5.535  0.7311E+02  0.1301E+04
      5.606  0.7679E+02  0.1306E+04
      5.678  0.1130E+03  0.1314E+04
      5.750  0.1300E+03  0.1324E+04
      5.821  0.7150E+02  0.1329E+04
      5.893  0.6462E+02  0.1334E+04
      5.965  0.5738E+02  0.1338E+04
      6.036  0.2974E+02  0.1340E+04
      6.108  0.1871E+02  0.1341E+04
      6.180  0.2161E+02  0.1343E+04
      6.251  0.1662E+02  0.1344E+04
      6.323  0.8545E+01  0.1344E+04
      6.395  0.8223E+00  0.1344E+04
      6.466  0.1393E+00  0.1345E+04
      6.538  0.1973E+01  0.1345E+04
      6.610  0.1750E+01  0.1345E+04
      6.681  0.5823E+01  0.1345E+04
      6.753  0.2365E+02  0.1347E+04
      6.825  0.2553E+02  0.1349E+04
      6.896  0.1071E+02  0.1349E+04
      6.968  0.6324E+01  0.1350E+04
      7.040  0.8922E+01  0.1351E+04
      7.111  0.4797E+01  0.1351E+04
      7.183  0.2227E+02  0.1353E+04
      7.255  0.2406E+02  0.1354E+04
      7.326  0.2778E+02  0.1356E+04
      7.398  0.3206E+02  0.1359E+04
      7.470  0.3009E+02  0.1361E+04
      7.541  0.6320E+02  0.1365E+04
      7.613  0.6915E+02  0.1370E+04
      7.685  0.2645E+02  0.1372E+04
      7.756  0.5651E+02  0.1376E+04
      7.828  0.6972E+02  0.1381E+04
      7.900  0.7315E+02  0.1386E+04
      7.971  0.7603E+02  0.1392E+04
      8.043  0.6415E+02  0.1396E+04
      8.115  0.3375E+02  0.1399E+04
      8.186  0.1803E+02  0.1400E+04
      8.258  0.7939E+01  0.1401E+04
      8.330  0.1160E+02  0.1402E+04
      8.401  0.5186E+02  0.1405E+04
      8.473  0.3260E+02  0.1408E+04
      8.545  0.3418E+02  0.1410E+04
      8.616  0.9781E+02  0.1417E+04
      8.688  0.1022E+03  0.1424E+04
      8.760  0.5794E+02  0.1429E+04
      8.832  0.5049E+02  0.1432E+04
      8.903  0.3348E+02  0.1435E+04
      8.975  0.4594E+02  0.1438E+04
      9.047  0.2937E+02  0.1440E+04
      9.118  0.2182E+02  0.1441E+04
      9.190  0.1002E+02  0.1442E+04
      9.262  0.1798E+02  0.1443E+04
      9.333  0.5489E+02  0.1447E+04
      9.405  0.4917E+02  0.1451E+04
      9.477  0.5407E+02  0.1455E+04
      9.548  0.3775E+02  0.1458E+04
      9.620  0.5138E+02  0.1461E+04
      9.692  0.5027E+02  0.1465E+04
      9.763  0.4720E+02  0.1468E+04
      9.835  0.5397E+02  0.1472E+04
      9.907  0.7569E+02  0.1477E+04
      9.978  0.5698E+02  0.1482E+04
     10.050  0.1108E+03  0.1490E+04
     10.122  0.1165E+03  0.1498E+04
     10.193  0.3974E+02  0.1501E+04
     10.265  0.2962E+02  0.1503E+04
     10.337  0.4892E+02  0.1506E+04
     10.408  0.5832E+02  0.1511E+04
     10.480  0.9079E+02  0.1517E+04
     10.552  0.1117E+03  0.1525E+04
     10.623  0.1108E+03  0.1533E+04
     10.695  0.9273E+02  0.1540E+04
     10.767  0.7963E+02  0.1545E+04
     10.838  0.1080E+03  0.1553E+04
     10.910  0.8764E+02  0.1559E+04
     10.982  0.6415E+02  0.1564E+04
     11.053  0.3371E+02  0.1566E+04
     11.125  0.5747E+02  0.1570E+04
     11.197  0.5012E+02  0.1574E+04
     11.268  0.4637E+02  0.1577E+04
     11.340  0.8355E+02  0.1583E+04
     11.412  0.5181E+02  0.1587E+04
     11.483  0.5676E+02  0.1591E+04
     11.555  0.8892E+02  0.1598E+04
     11.627  0.6665E+02  0.1602E+04
     11.698  0.4430E+02  0.1605E+04
     11.770  0.1117E+02  0.1606E+04
     11.842  0.1525E+02  0.1607E+04
     11.913  0.3687E+02  0.1610E+04
     11.985  0.1971E+02  0.1611E+04
     12.057  0.2818E+01  0.1612E+04
     12.128  0.4491E+01  0.1612E+04
     12.200  0.5412E+00  0.1612E+04
     12.272  0.2129E-02  0.1612E+04
     12.343  0.1892E-06  0.1612E+04
     12.415  0.3268E-12  0.1612E+04
     12.487  0.0000E+00  0.1612E+04
     12.558  0.0000E+00  0.1612E+04
     12.630  0.0000E+00  0.1612E+04
     12.702  0.0000E+00  0.1612E+04
     12.773  0.0000E+00  0.1612E+04
     12.845  0.0000E+00  0.1612E+04
     12.917  0.0000E+00  0.1612E+04
     12.988  0.0000E+00  0.1612E+04
     13.060  0.0000E+00  0.1612E+04
