<?xml version="1.0" encoding="ISO-8859-1"?>
<modeling>
 <generator>
  <i name="program" type="string">vasp </i>
  <i name="version" type="string">5.4.4.18Apr17-6-g9f103f2a35  </i>
  <i name="subversion" type="string">(build Jul 30 2020 14:31:59) complex            parallel </i>
  <i name="platform" type="string">LinuxIFC </i>
  <i name="date" type="string">2020 11 04 </i>
  <i name="time" type="string">04:54:56 </i>
 </generator>
 <incar>
  <i type="string" name="PREC">accurate</i>
  <i type="string" name="ALGO"> normal</i>
  <i type="logical" name="ADDGRID"> T  </i>
  <i type="int" name="ISPIN">     1</i>
  <i type="int" name="ICHARG">     1</i>
  <i type="int" name="NELM">   200</i>
  <i type="int" name="NELMIN">     8</i>
  <i name="EDIFF">      0.00000001</i>
  <i type="int" name="ISIF">     3</i>
  <i name="ENCUT">    650.00000000</i>
  <i type="logical" name="LREAL"> F  </i>
  <i type="int" name="ISMEAR">     0</i>
  <i name="SIGMA">      0.05000000</i>
  <i type="logical" name="LWAVE"> F  </i>
  <i type="logical" name="LASPH"> T  </i>
  <v type="int" name="KPOINT_BSE">    -1     0     0     0</v>
  <i type="int" name="NELM">   200</i>
  <i type="string" name="GGA"> ps</i>
  <i type="logical" name="LASPH"> T  </i>
 </incar>
 <structure name="primitive_cell" >
  <crystal>
   <varray name="basis" >
    <v>      17.67434300       0.00000000       0.02590756 </v>
    <v>       0.00000000      13.77516210       0.00000000 </v>
    <v>      -4.23144168       0.00000000      15.22594286 </v>
   </varray>
   <i name="volume">   3708.52383470 </i>
   <varray name="rec_basis" >
    <v>       0.05655615       0.00000000       0.01571752 </v>
    <v>       0.00000000       0.07259443       0.00000000 </v>
    <v>      -0.00009623       0.00000000       0.06565063 </v>
   </varray>
  </crystal>
  <varray name="positions" >
   <v>       0.08031353       0.12413882       0.07841825 </v>
   <v>       0.18318778       0.26122260       0.07996576 </v>
   <v>       0.19181221       0.01122260       0.17003418 </v>
   <v>       0.05665091       0.18037250       0.23351951 </v>
   <v>       0.18108512       0.06962750      -0.01648049 </v>
   <v>      -0.06891488       0.06962750      -0.01648049 </v>
   <v>       0.06891487      -0.06962750       0.01648043 </v>
   <v>       0.06681221       0.23877740      -0.07996582 </v>
   <v>      -0.06681222       0.26122260       0.07996576 </v>
   <v>      -0.05818779       0.01122260       0.17003418 </v>
   <v>       0.04468646       0.37413882       0.17158168 </v>
   <v>       0.04468646      -0.12586118       0.17158168 </v>
   <v>       0.20531353       0.12586118       0.32841825 </v>
   <v>      -0.04468647       0.12586118      -0.17158175 </v>
   <v>       0.19391487       0.31962750       0.26648043 </v>
   <v>       0.30608512       0.18037250       0.23351951 </v>
   <v>       0.05818778      -0.01122260      -0.17003424 </v>
   <v>       0.06891487       0.43037250       0.01648043 </v>
   <v>       0.33031353       0.12413882       0.07841825 </v>
   <v>      -0.16968647       0.12413882       0.07841825 </v>
   <v>       0.05818778      -0.01122260       0.32996576 </v>
   <v>      -0.08031354      -0.12413882      -0.07841832 </v>
   <v>       0.16968646      -0.12413882      -0.07841832 </v>
   <v>      -0.08031354       0.37586118      -0.07841832 </v>
   <v>       0.16968646       0.37586118      -0.07841832 </v>
   <v>      -0.18318779       0.23877740      -0.07996582 </v>
   <v>      -0.04468647       0.12586118       0.32841825 </v>
   <v>       0.20531353       0.12586118      -0.17158175 </v>
   <v>       0.29468646       0.37413882       0.17158168 </v>
   <v>       0.29468646      -0.12586118       0.17158168 </v>
   <v>      -0.05608513       0.31962750       0.26648043 </v>
   <v>       0.30818778      -0.01122260       0.32996576 </v>
   <v>      -0.18108513      -0.06962750       0.01648043 </v>
   <v>       0.19391487      -0.18037250       0.26648043 </v>
   <v>       0.31891487      -0.06962750       0.01648043 </v>
   <v>       0.18318778      -0.23877740       0.07996576 </v>
   <v>       0.05608512       0.18037250      -0.26648049 </v>
   <v>      -0.05608513       0.31962750      -0.23351957 </v>
   <v>      -0.06681222      -0.23877740       0.07996576 </v>
   <v>       0.31681221       0.23877740      -0.07996582 </v>
   <v>      -0.19181222      -0.01122260      -0.17003424 </v>
   <v>       0.06681221       0.23877740       0.42003418 </v>
   <v>       0.19181221      -0.48877740       0.17003418 </v>
   <v>       0.06681221      -0.26122260      -0.07996582 </v>
   <v>      -0.05608513      -0.18037250       0.26648043 </v>
   <v>      -0.19391488       0.18037250       0.23351951 </v>
   <v>       0.31681221       0.23877740       0.42003418 </v>
   <v>      -0.18108513       0.43037250       0.01648043 </v>
   <v>      -0.05818779      -0.48877740       0.17003418 </v>
   <v>       0.18108512       0.06962750       0.48351951 </v>
   <v>       0.31891487       0.43037250       0.01648043 </v>
   <v>       0.16968646      -0.12413882       0.42158168 </v>
   <v>       0.16968646       0.37586118       0.42158168 </v>
   <v>      -0.19391488       0.18037250      -0.26648049 </v>
   <v>       0.05818778       0.48877740      -0.17003424 </v>
   <v>       0.44181221       0.01122260       0.17003418 </v>
   <v>       0.19391487       0.31962750      -0.23351957 </v>
   <v>      -0.05608513      -0.18037250      -0.23351957 </v>
   <v>      -0.05818779       0.01122260      -0.32996582 </v>
   <v>       0.05818778       0.48877740       0.32996576 </v>
   <v>       0.43318778       0.26122260       0.07996576 </v>
   <v>      -0.20531354       0.37413882       0.17158168 </v>
   <v>      -0.20531354      -0.12586118       0.17158168 </v>
   <v>       0.30818778      -0.01122260      -0.17003424 </v>
   <v>       0.05608512      -0.31962750       0.23351951 </v>
   <v>       0.18108512      -0.43037250      -0.01648049 </v>
   <v>      -0.06891488      -0.43037250      -0.01648049 </v>
   <v>       0.45531353       0.12586118       0.32841825 </v>
   <v>      -0.29468647       0.12586118      -0.17158175 </v>
   <v>       0.43108512       0.06962750      -0.01648049 </v>
   <v>      -0.31891488       0.06962750      -0.01648049 </v>
   <v>       0.44391487       0.31962750       0.26648043 </v>
   <v>       0.08031353      -0.37586118       0.07841825 </v>
   <v>       0.30818778       0.48877740       0.32996576 </v>
   <v>      -0.18318779      -0.26122260      -0.07996582 </v>
   <v>       0.19391487      -0.18037250      -0.23351957 </v>
   <v>       0.04468646       0.37413882      -0.32841832 </v>
   <v>       0.04468646      -0.12586118      -0.32841832 </v>
   <v>      -0.19181222      -0.01122260       0.32996576 </v>
   <v>      -0.31681222       0.26122260       0.07996576 </v>
   <v>      -0.19181222       0.48877740      -0.17003424 </v>
   <v>       0.30608512      -0.31962750       0.23351951 </v>
   <v>       0.19181221       0.01122260      -0.32996582 </v>
   <v>       0.06891487      -0.06962750      -0.48351957 </v>
   <v>      -0.30818779       0.01122260       0.17003418 </v>
   <v>       0.31891487      -0.06962750      -0.48351957 </v>
   <v>      -0.08031354      -0.12413882       0.42158168 </v>
   <v>       0.31681221      -0.26122260      -0.07996582 </v>
   <v>      -0.06891488       0.06962750       0.48351951 </v>
   <v>       0.44391487      -0.18037250       0.26648043 </v>
   <v>      -0.08031354       0.37586118       0.42158168 </v>
   <v>       0.30608512       0.18037250      -0.26648049 </v>
   <v>       0.06681221      -0.26122260       0.42003418 </v>
   <v>       0.43108512       0.06962750       0.48351951 </v>
   <v>       0.41968646      -0.12413882       0.42158168 </v>
   <v>       0.41968646       0.37586118       0.42158168 </v>
   <v>      -0.30608513       0.31962750      -0.23351957 </v>
   <v>      -0.33031354      -0.12413882      -0.07841832 </v>
   <v>      -0.33031354       0.37586118      -0.07841832 </v>
   <v>      -0.20531354       0.37413882      -0.32841832 </v>
   <v>      -0.20531354      -0.12586118      -0.32841832 </v>
   <v>      -0.06681222       0.26122260      -0.42003424 </v>
   <v>       0.41968646      -0.12413882      -0.07841832 </v>
   <v>       0.18318778       0.26122260      -0.42003424 </v>
   <v>       0.41968646       0.37586118      -0.07841832 </v>
   <v>       0.08031353       0.12413882      -0.42158175 </v>
   <v>       0.31681221      -0.26122260       0.42003418 </v>
   <v>       0.20531353      -0.37413882       0.32841825 </v>
   <v>      -0.04468647      -0.37413882      -0.17158175 </v>
   <v>       0.33031353       0.12413882      -0.42158175 </v>
   <v>      -0.16968647       0.12413882      -0.42158175 </v>
   <v>       0.43318778      -0.23877740       0.07996576 </v>
   <v>       0.30818778       0.48877740      -0.17003424 </v>
   <v>       0.05608512      -0.31962750      -0.26648049 </v>
   <v>      -0.44391488       0.18037250       0.23351951 </v>
   <v>       0.44181221      -0.48877740       0.17003418 </v>
   <v>       0.06891487       0.43037250      -0.48351957 </v>
   <v>      -0.18318779       0.23877740       0.42003418 </v>
   <v>       0.33031353      -0.37586118       0.07841825 </v>
   <v>      -0.16968647      -0.37586118       0.07841825 </v>
   <v>      -0.30818779       0.01122260      -0.32996582 </v>
   <v>      -0.05818779      -0.48877740      -0.32996582 </v>
   <v>       0.31891487       0.43037250      -0.48351957 </v>
   <v>      -0.30608513      -0.18037250      -0.23351957 </v>
   <v>      -0.04468647      -0.37413882       0.32841825 </v>
   <v>       0.20531353      -0.37413882      -0.17158175 </v>
   <v>      -0.44181222      -0.01122260       0.32996576 </v>
   <v>      -0.19391488      -0.31962750       0.23351951 </v>
   <v>      -0.29468647       0.12586118       0.32841825 </v>
   <v>       0.45531353       0.12586118      -0.17158175 </v>
   <v>      -0.30608513       0.31962750       0.26648043 </v>
   <v>      -0.19181222       0.48877740       0.32996576 </v>
   <v>      -0.31681222      -0.23877740       0.07996576 </v>
   <v>      -0.45531354       0.37413882       0.17158168 </v>
   <v>      -0.45531354      -0.12586118       0.17158168 </v>
   <v>       0.18108512      -0.43037250       0.48351951 </v>
   <v>      -0.19391488      -0.31962750      -0.26648049 </v>
   <v>      -0.41968647       0.12413882       0.07841825 </v>
   <v>       0.43318778       0.26122260      -0.42003424 </v>
   <v>      -0.43318779       0.23877740      -0.07996582 </v>
   <v>       0.29468646       0.37413882      -0.32841832 </v>
   <v>       0.29468646      -0.12586118      -0.32841832 </v>
   <v>       0.19181221      -0.48877740      -0.32996582 </v>
   <v>      -0.43318779       0.23877740       0.42003418 </v>
   <v>      -0.06681222      -0.23877740      -0.42003424 </v>
   <v>      -0.30818779      -0.48877740       0.17003418 </v>
   <v>       0.43108512      -0.43037250      -0.01648049 </v>
   <v>       0.18318778      -0.23877740      -0.42003424 </v>
   <v>      -0.30608513      -0.18037250       0.26648043 </v>
   <v>      -0.31891488      -0.43037250      -0.01648049 </v>
   <v>      -0.44181222      -0.01122260      -0.17003424 </v>
   <v>      -0.43108513      -0.06962750       0.01648043 </v>
   <v>      -0.31681222       0.26122260      -0.42003424 </v>
   <v>      -0.18108513      -0.06962750      -0.48351957 </v>
   <v>      -0.44391488       0.18037250      -0.26648049 </v>
   <v>       0.44391487       0.31962750      -0.23351957 </v>
   <v>      -0.18318779      -0.26122260       0.42003418 </v>
   <v>       0.45531353      -0.37413882       0.32841825 </v>
   <v>      -0.29468647      -0.37413882      -0.17158175 </v>
   <v>      -0.30818779      -0.48877740      -0.32996582 </v>
   <v>      -0.44181222       0.48877740       0.32996576 </v>
   <v>       0.30608512      -0.31962750      -0.26648049 </v>
   <v>      -0.06891488      -0.43037250       0.48351951 </v>
   <v>      -0.43108513       0.43037250       0.01648043 </v>
   <v>       0.43108512      -0.43037250       0.48351951 </v>
   <v>      -0.18108513       0.43037250      -0.48351957 </v>
   <v>      -0.43108513      -0.06962750      -0.48351957 </v>
   <v>       0.44181221       0.01122260      -0.32996582 </v>
   <v>       0.44391487      -0.18037250      -0.23351957 </v>
   <v>       0.43318778      -0.23877740      -0.42003424 </v>
   <v>      -0.44391488      -0.31962750       0.23351951 </v>
   <v>      -0.41968647       0.12413882      -0.42158175 </v>
   <v>      -0.31891488       0.06962750       0.48351951 </v>
   <v>      -0.43318779      -0.26122260      -0.07996582 </v>
   <v>      -0.44181222       0.48877740      -0.17003424 </v>
   <v>      -0.43318779      -0.26122260       0.42003418 </v>
   <v>      -0.31681222      -0.23877740      -0.42003424 </v>
   <v>      -0.43108513       0.43037250      -0.48351957 </v>
   <v>       0.08031353      -0.37586118      -0.42158175 </v>
   <v>      -0.45531354       0.37413882      -0.32841832 </v>
   <v>      -0.45531354      -0.12586118      -0.32841832 </v>
   <v>       0.33031353      -0.37586118      -0.42158175 </v>
   <v>      -0.16968647      -0.37586118      -0.42158175 </v>
   <v>      -0.33031354      -0.12413882       0.42158168 </v>
   <v>      -0.33031354       0.37586118       0.42158168 </v>
   <v>      -0.29468647      -0.37413882       0.32841825 </v>
   <v>       0.45531353      -0.37413882      -0.17158175 </v>
   <v>       0.44181221      -0.48877740      -0.32996582 </v>
   <v>      -0.41968647      -0.37586118       0.07841825 </v>
   <v>      -0.44391488      -0.31962750      -0.26648049 </v>
   <v>      -0.31891488      -0.43037250       0.48351951 </v>
   <v>      -0.41968647      -0.37586118      -0.42158175 </v>
  </varray>
 </structure>
 <varray name="primitive_index" >
  <v type="int" >        1 </v>
  <v type="int" >       81 </v>
  <v type="int" >       65 </v>
  <v type="int" >      129 </v>
  <v type="int" >      185 </v>
  <v type="int" >      188 </v>
  <v type="int" >      149 </v>
  <v type="int" >      121 </v>
  <v type="int" >       84 </v>
  <v type="int" >       68 </v>
  <v type="int" >       17 </v>
  <v type="int" >       21 </v>
  <v type="int" >       49 </v>
  <v type="int" >       60 </v>
  <v type="int" >      161 </v>
  <v type="int" >      130 </v>
  <v type="int" >      109 </v>
  <v type="int" >      145 </v>
  <v type="int" >        2 </v>
  <v type="int" >        4 </v>
  <v type="int" >      101 </v>
  <v type="int" >       48 </v>
  <v type="int" >       45 </v>
  <v type="int" >       44 </v>
  <v type="int" >       41 </v>
  <v type="int" >      124 </v>
  <v type="int" >       52 </v>
  <v type="int" >       57 </v>
  <v type="int" >       18 </v>
  <v type="int" >       22 </v>
  <v type="int" >      164 </v>
  <v type="int" >      102 </v>
  <v type="int" >      152 </v>
  <v type="int" >      165 </v>
  <v type="int" >      150 </v>
  <v type="int" >       85 </v>
  <v type="int" >      137 </v>
  <v type="int" >      172 </v>
  <v type="int" >       88 </v>
  <v type="int" >      122 </v>
  <v type="int" >      112 </v>
  <v type="int" >      113 </v>
  <v type="int" >       69 </v>
  <v type="int" >      125 </v>
  <v type="int" >      168 </v>
  <v type="int" >      132 </v>
  <v type="int" >      114 </v>
  <v type="int" >      148 </v>
  <v type="int" >       72 </v>
  <v type="int" >      177 </v>
  <v type="int" >      146 </v>
  <v type="int" >       37 </v>
  <v type="int" >       33 </v>
  <v type="int" >      140 </v>
  <v type="int" >      105 </v>
  <v type="int" >       66 </v>
  <v type="int" >      169 </v>
  <v type="int" >      176 </v>
  <v type="int" >       76 </v>
  <v type="int" >       97 </v>
  <v type="int" >       82 </v>
  <v type="int" >       20 </v>
  <v type="int" >       24 </v>
  <v type="int" >      110 </v>
  <v type="int" >      133 </v>
  <v type="int" >      189 </v>
  <v type="int" >      192 </v>
  <v type="int" >       50 </v>
  <v type="int" >       59 </v>
  <v type="int" >      186 </v>
  <v type="int" >      187 </v>
  <v type="int" >      162 </v>
  <v type="int" >        5 </v>
  <v type="int" >       98 </v>
  <v type="int" >      128 </v>
  <v type="int" >      173 </v>
  <v type="int" >       25 </v>
  <v type="int" >       29 </v>
  <v type="int" >      104 </v>
  <v type="int" >       83 </v>
  <v type="int" >      108 </v>
  <v type="int" >      134 </v>
  <v type="int" >       73 </v>
  <v type="int" >      157 </v>
  <v type="int" >       67 </v>
  <v type="int" >      158 </v>
  <v type="int" >       40 </v>
  <v type="int" >      126 </v>
  <v type="int" >      180 </v>
  <v type="int" >      166 </v>
  <v type="int" >       36 </v>
  <v type="int" >      138 </v>
  <v type="int" >      117 </v>
  <v type="int" >      178 </v>
  <v type="int" >       38 </v>
  <v type="int" >       34 </v>
  <v type="int" >      171 </v>
  <v type="int" >       47 </v>
  <v type="int" >       43 </v>
  <v type="int" >       28 </v>
  <v type="int" >       32 </v>
  <v type="int" >       92 </v>
  <v type="int" >       46 </v>
  <v type="int" >       89 </v>
  <v type="int" >       42 </v>
  <v type="int" >        9 </v>
  <v type="int" >      118 </v>
  <v type="int" >       53 </v>
  <v type="int" >       64 </v>
  <v type="int" >       10 </v>
  <v type="int" >       12 </v>
  <v type="int" >       86 </v>
  <v type="int" >      106 </v>
  <v type="int" >      141 </v>
  <v type="int" >      131 </v>
  <v type="int" >       70 </v>
  <v type="int" >      153 </v>
  <v type="int" >      116 </v>
  <v type="int" >        6 </v>
  <v type="int" >        8 </v>
  <v type="int" >       75 </v>
  <v type="int" >       80 </v>
  <v type="int" >      154 </v>
  <v type="int" >      175 </v>
  <v type="int" >       56 </v>
  <v type="int" >       61 </v>
  <v type="int" >      103 </v>
  <v type="int" >      136 </v>
  <v type="int" >       51 </v>
  <v type="int" >       58 </v>
  <v type="int" >      163 </v>
  <v type="int" >      100 </v>
  <v type="int" >       87 </v>
  <v type="int" >       19 </v>
  <v type="int" >       23 </v>
  <v type="int" >      181 </v>
  <v type="int" >      144 </v>
  <v type="int" >        3 </v>
  <v type="int" >       90 </v>
  <v type="int" >      123 </v>
  <v type="int" >       26 </v>
  <v type="int" >       30 </v>
  <v type="int" >       77 </v>
  <v type="int" >      115 </v>
  <v type="int" >       96 </v>
  <v type="int" >       71 </v>
  <v type="int" >      190 </v>
  <v type="int" >       93 </v>
  <v type="int" >      167 </v>
  <v type="int" >      191 </v>
  <v type="int" >      111 </v>
  <v type="int" >      151 </v>
  <v type="int" >       91 </v>
  <v type="int" >      160 </v>
  <v type="int" >      139 </v>
  <v type="int" >      170 </v>
  <v type="int" >      120 </v>
  <v type="int" >       54 </v>
  <v type="int" >       63 </v>
  <v type="int" >       79 </v>
  <v type="int" >       99 </v>
  <v type="int" >      142 </v>
  <v type="int" >      184 </v>
  <v type="int" >      147 </v>
  <v type="int" >      182 </v>
  <v type="int" >      156 </v>
  <v type="int" >      159 </v>
  <v type="int" >       74 </v>
  <v type="int" >      174 </v>
  <v type="int" >       94 </v>
  <v type="int" >      135 </v>
  <v type="int" >       11 </v>
  <v type="int" >      179 </v>
  <v type="int" >      127 </v>
  <v type="int" >      107 </v>
  <v type="int" >      119 </v>
  <v type="int" >       95 </v>
  <v type="int" >      155 </v>
  <v type="int" >       13 </v>
  <v type="int" >       27 </v>
  <v type="int" >       31 </v>
  <v type="int" >       14 </v>
  <v type="int" >       16 </v>
  <v type="int" >       39 </v>
  <v type="int" >       35 </v>
  <v type="int" >       55 </v>
  <v type="int" >       62 </v>
  <v type="int" >       78 </v>
  <v type="int" >        7 </v>
  <v type="int" >      143 </v>
  <v type="int" >      183 </v>
  <v type="int" >       15 </v>
 </varray>
 <kpoints>
  <generation param="Gamma">
   <v type="int" name="divisions">       2        2        2 </v>
   <v name="usershift">      0.00000000       0.00000000       0.00000000 </v>
   <v name="genvec1">      0.50000000       0.00000000       0.00000000 </v>
   <v name="genvec2">      0.00000000       0.50000000       0.00000000 </v>
   <v name="genvec3">      0.00000000       0.00000000       0.50000000 </v>
   <v name="shift">      0.00000000       0.00000000       0.00000000 </v>
  </generation>
  <varray name="kpointlist" >
   <v>       0.00000000       0.00000000       0.00000000 </v>
   <v>       0.50000000       0.00000000      -0.00000000 </v>
   <v>       0.00000000       0.50000000       0.00000000 </v>
   <v>       0.50000000       0.50000000      -0.00000000 </v>
   <v>      -0.00000000       0.00000000       0.50000000 </v>
   <v>       0.50000000       0.00000000       0.50000000 </v>
   <v>      -0.00000000       0.50000000       0.50000000 </v>
   <v>       0.50000000       0.50000000       0.50000000 </v>
  </varray>
  <varray name="weights" >
   <v>       0.12500000 </v>
   <v>       0.12500000 </v>
   <v>       0.12500000 </v>
   <v>       0.12500000 </v>
   <v>       0.12500000 </v>
   <v>       0.12500000 </v>
   <v>       0.12500000 </v>
   <v>       0.12500000 </v>
  </varray>
 </kpoints>
 <parameters>
  <separator name="general" >
   <i type="string" name="SYSTEM">unknown system</i>
   <i type="logical" name="LCOMPAT"> F  </i>
  </separator>
  <separator name="electronic" >
   <i type="string" name="PREC">accura</i>
   <i name="ENMAX">    650.00000000</i>
   <i name="ENAUG">    446.84200000</i>
   <i name="EDIFF">      0.00000001</i>
   <i type="int" name="IALGO">    38</i>
   <i type="int" name="IWAVPR">    10</i>
   <i type="int" name="NBANDS">  1075</i>
   <i name="NELECT">   1792.00000000</i>
   <i type="int" name="TURBO">     0</i>
   <i type="int" name="IRESTART">     0</i>
   <i type="int" name="NREBOOT">     0</i>
   <i type="int" name="NMIN">     0</i>
   <i name="EREF">      0.00000000</i>
   <separator name="electronic smearing" >
    <i type="int" name="ISMEAR">     0</i>
    <i name="SIGMA">      0.05000000</i>
    <i name="KSPACING">      0.50000000</i>
    <i type="logical" name="KGAMMA"> T  </i>
   </separator>
   <separator name="electronic projectors" >
    <i type="logical" name="LREAL"> F  </i>
    <v name="ROPT">      0.00000000      0.00000000</v>
    <i type="int" name="LMAXPAW">  -100</i>
    <i type="int" name="LMAXMIX">     2</i>
    <i type="logical" name="NLSPLINE"> F  </i>
   </separator>
   <separator name="electronic startup" >
    <i type="int" name="ISTART">     0</i>
    <i type="int" name="ICHARG">     1</i>
    <i type="int" name="INIWAV">     1</i>
   </separator>
   <separator name="electronic spin" >
    <i type="int" name="ISPIN">     1</i>
    <i type="logical" name="LNONCOLLINEAR"> F  </i>
    <v name="MAGMOM">      1.00000000      1.00000000      1.00000000      1.00000000      1.00000000      1.00000000      1.00000000      1.00000000      1.00000000      1.00000000      1.00000000      1.00000000      1.00000000      1.00000000      1.00000000      1.00000000      1.00000000      1.00000000      1.00000000      1.00000000
      1.00000000      1.00000000      1.00000000      1.00000000      1.00000000      1.00000000      1.00000000      1.00000000      1.00000000      1.00000000      1.00000000      1.00000000      1.00000000      1.00000000      1.00000000      1.00000000      1.00000000      1.00000000      1.00000000      1.00000000
      1.00000000      1.00000000      1.00000000      1.00000000      1.00000000      1.00000000      1.00000000      1.00000000      1.00000000      1.00000000      1.00000000      1.00000000      1.00000000      1.00000000      1.00000000      1.00000000      1.00000000      1.00000000      1.00000000      1.00000000
      1.00000000      1.00000000      1.00000000      1.00000000      1.00000000      1.00000000      1.00000000      1.00000000      1.00000000      1.00000000      1.00000000      1.00000000      1.00000000      1.00000000      1.00000000      1.00000000      1.00000000      1.00000000      1.00000000      1.00000000
      1.00000000      1.00000000      1.00000000      1.00000000      1.00000000      1.00000000      1.00000000      1.00000000      1.00000000      1.00000000      1.00000000      1.00000000      1.00000000      1.00000000      1.00000000      1.00000000      1.00000000      1.00000000      1.00000000      1.00000000
      1.00000000      1.00000000      1.00000000      1.00000000      1.00000000      1.00000000      1.00000000      1.00000000      1.00000000      1.00000000      1.00000000      1.00000000      1.00000000      1.00000000      1.00000000      1.00000000      1.00000000      1.00000000      1.00000000      1.00000000
      1.00000000      1.00000000      1.00000000      1.00000000      1.00000000      1.00000000      1.00000000      1.00000000      1.00000000      1.00000000      1.00000000      1.00000000      1.00000000      1.00000000      1.00000000      1.00000000      1.00000000      1.00000000      1.00000000      1.00000000
      1.00000000      1.00000000      1.00000000      1.00000000      1.00000000      1.00000000      1.00000000      1.00000000      1.00000000      1.00000000      1.00000000      1.00000000      1.00000000      1.00000000      1.00000000      1.00000000      1.00000000      1.00000000      1.00000000      1.00000000
      1.00000000      1.00000000      1.00000000      1.00000000      1.00000000      1.00000000      1.00000000      1.00000000      1.00000000      1.00000000      1.00000000      1.00000000      1.00000000      1.00000000      1.00000000      1.00000000      1.00000000      1.00000000      1.00000000      1.00000000
      1.00000000      1.00000000      1.00000000      1.00000000      1.00000000      1.00000000      1.00000000      1.00000000      1.00000000      1.00000000      1.00000000      1.00000000</v>
    <i name="NUPDOWN">     -1.00000000</i>
    <i type="logical" name="LSORBIT"> F  </i>
    <v name="SAXIS">      0.00000000      0.00000000      1.00000000</v>
    <i type="logical" name="LSPIRAL"> F  </i>
    <v name="QSPIRAL">      0.00000000      0.00000000      0.00000000</v>
    <i type="logical" name="LZEROZ"> F  </i>
   </separator>
   <separator name="electronic exchange-correlation" >
    <i type="logical" name="LASPH"> T  </i>
    <i type="logical" name="LMETAGGA"> F  </i>
   </separator>
   <separator name="electronic convergence" >
    <i type="int" name="NELM">   200</i>
    <i type="int" name="NELMDL">     0</i>
    <i type="int" name="NELMIN">     8</i>
    <i name="ENINI">    650.00000000</i>
    <separator name="electronic convergence detail" >
     <i type="logical" name="LDIAG"> T  </i>
     <i type="logical" name="LSUBROT"> F  </i>
     <i name="WEIMIN">      0.00000000</i>
     <i name="EBREAK">      0.00000000</i>
     <i name="DEPER">      0.30000000</i>
     <i type="int" name="NRMM">     4</i>
     <i name="TIME">      0.40000000</i>
    </separator>
   </separator>
   <separator name="electronic mixer" >
    <i name="AMIX">      0.40000000</i>
    <i name="BMIX">      1.00000000</i>
    <i name="AMIN">      0.10000000</i>
    <i name="AMIX_MAG">      1.60000000</i>
    <i name="BMIX_MAG">      1.00000000</i>
    <separator name="electronic mixer details" >
     <i type="int" name="IMIX">     4</i>
     <i type="logical" name="MIXFIRST"> F  </i>
     <i type="int" name="MAXMIX">   -45</i>
     <i name="WC">    100.00000000</i>
     <i type="int" name="INIMIX">     1</i>
     <i type="int" name="MIXPRE">     1</i>
     <i type="int" name="MREMOVE">     5</i>
    </separator>
   </separator>
   <separator name="electronic dipolcorrection" >
    <i type="logical" name="LDIPOL"> F  </i>
    <i type="logical" name="LMONO"> F  </i>
    <i type="int" name="IDIPOL">     0</i>
    <i name="EPSILON">      1.00000000</i>
    <v name="DIPOL">   -100.00000000   -100.00000000   -100.00000000</v>
    <i name="EFIELD">      0.00000000</i>
   </separator>
  </separator>
  <separator name="grids" >
   <i type="int" name="NGX">   150</i>
   <i type="int" name="NGY">   120</i>
   <i type="int" name="NGZ">   140</i>
   <i type="int" name="NGXF">   300</i>
   <i type="int" name="NGYF">   240</i>
   <i type="int" name="NGZF">   280</i>
   <i type="logical" name="ADDGRID"> T  </i>
  </separator>
  <separator name="ionic" >
   <i type="int" name="NSW">     0</i>
   <i type="int" name="IBRION">    -1</i>
   <i type="int" name="MDALGO">     0</i>
   <i type="int" name="ISIF">     3</i>
   <i name="PSTRESS">      0.00000000</i>
   <i name="EDIFFG">      0.00000010</i>
   <i type="int" name="NFREE">     0</i>
   <i name="POTIM">      0.50000000</i>
   <i name="SMASS">     -3.00000000</i>
   <i name="SCALEE">      1.00000000</i>
  </separator>
  <separator name="ionic md" >
   <i name="TEBEG">      0.00010000</i>
   <i name="TEEND">      0.00010000</i>
   <i type="int" name="NBLOCK">     1</i>
   <i type="int" name="KBLOCK">     1</i>
   <i type="int" name="NPACO">   256</i>
   <i name="APACO">     16.00000000</i>
  </separator>
  <separator name="symmetry" >
   <i type="int" name="ISYM">     2</i>
   <i name="SYMPREC">      0.00001000</i>
  </separator>
  <separator name="dos" >
   <i type="int" name="LORBIT">     0</i>
   <v name="RWIGS">     -1.00000000     -1.00000000</v>
   <i type="int" name="NEDOS">   301</i>
   <i name="EMIN">     10.00000000</i>
   <i name="EMAX">    -10.00000000</i>
   <i name="EFERMI">      0.00000000</i>
  </separator>
  <separator name="writing" >
   <i type="int" name="NWRITE">     2</i>
   <i type="logical" name="LWAVE"> F  </i>
   <i type="logical" name="LDOWNSAMPLE"> F  </i>
   <i type="logical" name="LCHARG"> T  </i>
   <i type="logical" name="LPARD"> F  </i>
   <i type="logical" name="LVTOT"> F  </i>
   <i type="logical" name="LVHAR"> F  </i>
   <i type="logical" name="LELF"> F  </i>
   <i type="logical" name="LOPTICS"> F  </i>
   <v name="STM">      0.00000000      0.00000000      0.00000000      0.00000000      0.00000000      0.00000000      0.00000000</v>
  </separator>
  <separator name="performance" >
   <i type="int" name="NPAR">     1</i>
   <i type="int" name="NSIM">     4</i>
   <i type="int" name="NBLK">    -1</i>
   <i type="logical" name="LPLANE"> T  </i>
   <i type="logical" name="LSCALAPACK"> T  </i>
   <i type="logical" name="LSCAAWARE"> F  </i>
   <i type="logical" name="LSCALU"> F  </i>
   <i type="logical" name="LASYNC"> F  </i>
   <i type="logical" name="LORBITALREAL"> F  </i>
  </separator>
  <separator name="miscellaneous" >
   <i type="int" name="IDIOT">     3</i>
   <i type="int" name="ISPECIAL">     0</i>
   <i type="logical" name="LMUSIC"> F  </i>
   <v name="POMASS">     78.96000000    107.86800000</v>
   <v name="DARWINR">      0.00000000      0.00000000</v>
   <v name="DARWINV">      1.00000000      1.00000000</v>
   <i type="logical" name="LCORR"> T  </i>
  </separator>
  <i type="logical" name="GGA_COMPAT"> T  </i>
  <i type="logical" name="LBERRY"> F  </i>
  <i type="int" name="ICORELEVEL">     0</i>
  <i type="logical" name="LDAU"> F  </i>
  <i type="int" name="I_CONSTRAINED_M">     0</i>
  <separator name="electronic exchange-correlation" >
   <i type="string" name="GGA">PS</i>
   <i type="int" name="VOSKOWN">     0</i>
   <i type="logical" name="LHFCALC"> F  </i>
   <i type="string" name="PRECFOCK"></i>
   <i type="logical" name="LSYMGRAD"> F  </i>
   <i type="logical" name="LHFONE"> F  </i>
   <i type="logical" name="LRHFCALC"> F  </i>
   <i type="logical" name="LTHOMAS"> F  </i>
   <i type="logical" name="LMODELHF"> F  </i>
   <i name="ENCUT4O">     -1.00000000</i>
   <i type="int" name="EXXOEP">     0</i>
   <i type="int" name="FOURORBIT">     0</i>
   <i name="AEXX">      0.00000000</i>
   <i name="HFALPHA">      0.00000000</i>
   <i name="MCALPHA">      0.00000000</i>
   <i name="ALDAX">      1.00000000</i>
   <i name="AGGAX">      1.00000000</i>
   <i name="ALDAC">      1.00000000</i>
   <i name="AGGAC">      1.00000000</i>
   <i type="int" name="NKREDX">     1</i>
   <i type="int" name="NKREDY">     1</i>
   <i type="int" name="NKREDZ">     1</i>
   <i type="logical" name="SHIFTRED"> F  </i>
   <i type="logical" name="ODDONLY"> F  </i>
   <i type="logical" name="EVENONLY"> F  </i>
   <i type="int" name="LMAXFOCK">     0</i>
   <i type="int" name="NMAXFOCKAE">     0</i>
   <i type="logical" name="LFOCKAEDFT"> F  </i>
   <i name="HFSCREEN">      0.00000000</i>
   <i name="HFSCREENC">      0.00000000</i>
   <i type="int" name="NBANDSGWLOW">     0</i>
  </separator>
  <separator name="vdW DFT" >
   <i type="logical" name="LUSE_VDW"> F  </i>
   <i name="Zab_VDW">     -0.84910000</i>
   <i name="PARAM1">      0.12340000</i>
   <i name="PARAM2">      1.00000000</i>
   <i name="PARAM3">      0.00000000</i>
  </separator>
  <separator name="model GW" >
   <i type="int" name="MODEL_GW">     0</i>
   <i name="MODEL_EPS0">     11.58913698</i>
   <i name="MODEL_ALPHA">      1.00000000</i>
  </separator>
  <separator name="linear response parameters" >
   <i type="logical" name="LEPSILON"> F  </i>
   <i type="logical" name="LRPA"> F  </i>
   <i type="logical" name="LNABLA"> F  </i>
   <i type="logical" name="LVEL"> F  </i>
   <i type="int" name="KINTER">     0</i>
   <i name="CSHIFT">      0.10000000</i>
   <i name="OMEGAMAX">     -1.00000000</i>
   <i name="DEG_THRESHOLD">      0.00200000</i>
   <i name="RTIME">     -0.10000000</i>
   <i name="WPLASMAI">      0.00000000</i>
   <v name="DFIELD">      0.00000000      0.00000000      0.00000000</v>
   <v name="WPLASMA">      0.00000000      0.00000000      0.00000000      0.00000000      0.00000000      0.00000000      0.00000000      0.00000000      0.00000000</v>
  </separator>
  <separator name="orbital magnetization" >
   <i type="logical" name="NUCIND"> F  </i>
   <v name="MAGPOS">      0.00000000      0.00000000      0.00000000</v>
   <i type="logical" name="LNICSALL"> T  </i>
   <i type="logical" name="ORBITALMAG"> F  </i>
   <i type="logical" name="LMAGBLOCH"> F  </i>
   <i type="logical" name="LCHIMAG"> F  </i>
   <i type="logical" name="LGAUGE"> T  </i>
   <i type="int" name="MAGATOM">     0</i>
   <v name="MAGDIPOL">      0.00000000      0.00000000      0.00000000</v>
   <v name="AVECCONST">      0.00000000      0.00000000      0.00000000</v>
  </separator>
  <separator name="response functions" >
   <i type="logical" name="LADDER"> F  </i>
   <i type="logical" name="LRPAFORCE"> F  </i>
   <i type="logical" name="LFXC"> F  </i>
   <i type="logical" name="LHARTREE"> T  </i>
   <i type="int" name="IBSE">     0</i>
   <v type="int" name="KPOINT">    -1     0     0     0</v>
   <i type="logical" name="LTCTE"> F  </i>
   <i type="logical" name="LTETE"> F  </i>
   <i type="logical" name="LTRIPLET"> F  </i>
   <i type="logical" name="LFXCEPS"> F  </i>
   <i type="logical" name="LFXHEG"> F  </i>
   <i type="int" name="NATURALO">     2</i>
   <i type="logical" name="L2ORDER"> F  </i>
   <i type="logical" name="LMP2LT"> F  </i>
   <i type="logical" name="LUSEW"> F  </i>
   <i name="ENCUTGW">     -2.00000000</i>
   <i name="ENCUTGWSOFT">     -2.00000000</i>
   <i name="ENCUTLF">     -1.00000000</i>
   <i type="int" name="LMAXMP2">    -1</i>
   <i name="SCISSOR">      0.00000000</i>
   <i type="int" name="NOMEGA">     0</i>
   <i type="int" name="NOMEGAR">     0</i>
   <i type="int" name="NBANDSGW">    -1</i>
   <i type="int" name="NBANDSO">    -1</i>
   <i type="int" name="NBANDSV">    -1</i>
   <i type="int" name="NELM">   200</i>
   <i type="int" name="NELMHF">     1</i>
   <i type="int" name="DIM">     3</i>
   <i type="int" name="ANTIRES">     0</i>
   <i name="OMEGAMAX">    -30.00000000</i>
   <i name="OMEGAMIN">    -30.00000000</i>
   <i name="OMEGATL">   -200.00000000</i>
   <i type="int" name="OMEGAGRID">   140</i>
   <i name="CSHIFT">     -0.10000000</i>
   <i type="logical" name="SELFENERGY"> F  </i>
   <i type="logical" name="LSPECTRAL"> F  </i>
   <i type="logical" name="LSPECTRALGW"> F  </i>
   <i type="logical" name="LSINGLES"> F  </i>
   <i type="logical" name="LFERMIGW"> F  </i>
   <i type="logical" name="ODDONLYGW"> F  </i>
   <i type="logical" name="EVENONLYGW"> F  </i>
   <i type="int" name="NKREDLFX">     1</i>
   <i type="int" name="NKREDLFY">     1</i>
   <i type="int" name="NKREDLFZ">     1</i>
   <i type="int" name="MAXMEM">  2800</i>
   <i type="int" name="TELESCOPE">     0</i>
   <i type="int" name="TAUPAR">     1</i>
   <i type="int" name="OMEGAPAR">    -1</i>
   <i name="LAMBDA">      1.00000000</i>
  </separator>
  <separator name="External order field" >
   <i name="OFIELD_KAPPA">      0.00000000</i>
   <v name="OFIELD_K">      0.00000000      0.00000000      0.00000000</v>
   <i name="OFIELD_Q6_NEAR">      0.00000000</i>
   <i name="OFIELD_Q6_FAR">      0.00000000</i>
   <i name="OFIELD_A">      0.00000000</i>
  </separator>
 </parameters>
 <atominfo>
  <atoms>     192 </atoms>
  <types>       2 </types>
  <array name="atoms" >
   <dimension dim="1">ion</dimension>
   <field type="string">element</field>
   <field type="int">atomtype</field>
   <set>
    <rc><c>Se</c><c>   1</c></rc>
    <rc><c>Se</c><c>   1</c></rc>
    <rc><c>Se</c><c>   1</c></rc>
    <rc><c>Se</c><c>   1</c></rc>
    <rc><c>Se</c><c>   1</c></rc>
    <rc><c>Se</c><c>   1</c></rc>
    <rc><c>Se</c><c>   1</c></rc>
    <rc><c>Se</c><c>   1</c></rc>
    <rc><c>Se</c><c>   1</c></rc>
    <rc><c>Se</c><c>   1</c></rc>
    <rc><c>Se</c><c>   1</c></rc>
    <rc><c>Se</c><c>   1</c></rc>
    <rc><c>Se</c><c>   1</c></rc>
    <rc><c>Se</c><c>   1</c></rc>
    <rc><c>Se</c><c>   1</c></rc>
    <rc><c>Se</c><c>   1</c></rc>
    <rc><c>Se</c><c>   1</c></rc>
    <rc><c>Se</c><c>   1</c></rc>
    <rc><c>Se</c><c>   1</c></rc>
    <rc><c>Se</c><c>   1</c></rc>
    <rc><c>Se</c><c>   1</c></rc>
    <rc><c>Se</c><c>   1</c></rc>
    <rc><c>Se</c><c>   1</c></rc>
    <rc><c>Se</c><c>   1</c></rc>
    <rc><c>Se</c><c>   1</c></rc>
    <rc><c>Se</c><c>   1</c></rc>
    <rc><c>Se</c><c>   1</c></rc>
    <rc><c>Se</c><c>   1</c></rc>
    <rc><c>Se</c><c>   1</c></rc>
    <rc><c>Se</c><c>   1</c></rc>
    <rc><c>Se</c><c>   1</c></rc>
    <rc><c>Se</c><c>   1</c></rc>
    <rc><c>Se</c><c>   1</c></rc>
    <rc><c>Se</c><c>   1</c></rc>
    <rc><c>Se</c><c>   1</c></rc>
    <rc><c>Se</c><c>   1</c></rc>
    <rc><c>Se</c><c>   1</c></rc>
    <rc><c>Se</c><c>   1</c></rc>
    <rc><c>Se</c><c>   1</c></rc>
    <rc><c>Se</c><c>   1</c></rc>
    <rc><c>Se</c><c>   1</c></rc>
    <rc><c>Se</c><c>   1</c></rc>
    <rc><c>Se</c><c>   1</c></rc>
    <rc><c>Se</c><c>   1</c></rc>
    <rc><c>Se</c><c>   1</c></rc>
    <rc><c>Se</c><c>   1</c></rc>
    <rc><c>Se</c><c>   1</c></rc>
    <rc><c>Se</c><c>   1</c></rc>
    <rc><c>Se</c><c>   1</c></rc>
    <rc><c>Se</c><c>   1</c></rc>
    <rc><c>Se</c><c>   1</c></rc>
    <rc><c>Se</c><c>   1</c></rc>
    <rc><c>Se</c><c>   1</c></rc>
    <rc><c>Se</c><c>   1</c></rc>
    <rc><c>Se</c><c>   1</c></rc>
    <rc><c>Se</c><c>   1</c></rc>
    <rc><c>Se</c><c>   1</c></rc>
    <rc><c>Se</c><c>   1</c></rc>
    <rc><c>Se</c><c>   1</c></rc>
    <rc><c>Se</c><c>   1</c></rc>
    <rc><c>Se</c><c>   1</c></rc>
    <rc><c>Se</c><c>   1</c></rc>
    <rc><c>Se</c><c>   1</c></rc>
    <rc><c>Se</c><c>   1</c></rc>
    <rc><c>Ag</c><c>   2</c></rc>
    <rc><c>Ag</c><c>   2</c></rc>
    <rc><c>Ag</c><c>   2</c></rc>
    <rc><c>Ag</c><c>   2</c></rc>
    <rc><c>Ag</c><c>   2</c></rc>
    <rc><c>Ag</c><c>   2</c></rc>
    <rc><c>Ag</c><c>   2</c></rc>
    <rc><c>Ag</c><c>   2</c></rc>
    <rc><c>Ag</c><c>   2</c></rc>
    <rc><c>Ag</c><c>   2</c></rc>
    <rc><c>Ag</c><c>   2</c></rc>
    <rc><c>Ag</c><c>   2</c></rc>
    <rc><c>Ag</c><c>   2</c></rc>
    <rc><c>Ag</c><c>   2</c></rc>
    <rc><c>Ag</c><c>   2</c></rc>
    <rc><c>Ag</c><c>   2</c></rc>
    <rc><c>Ag</c><c>   2</c></rc>
    <rc><c>Ag</c><c>   2</c></rc>
    <rc><c>Ag</c><c>   2</c></rc>
    <rc><c>Ag</c><c>   2</c></rc>
    <rc><c>Ag</c><c>   2</c></rc>
    <rc><c>Ag</c><c>   2</c></rc>
    <rc><c>Ag</c><c>   2</c></rc>
    <rc><c>Ag</c><c>   2</c></rc>
    <rc><c>Ag</c><c>   2</c></rc>
    <rc><c>Ag</c><c>   2</c></rc>
    <rc><c>Ag</c><c>   2</c></rc>
    <rc><c>Ag</c><c>   2</c></rc>
    <rc><c>Ag</c><c>   2</c></rc>
    <rc><c>Ag</c><c>   2</c></rc>
    <rc><c>Ag</c><c>   2</c></rc>
    <rc><c>Ag</c><c>   2</c></rc>
    <rc><c>Ag</c><c>   2</c></rc>
    <rc><c>Ag</c><c>   2</c></rc>
    <rc><c>Ag</c><c>   2</c></rc>
    <rc><c>Ag</c><c>   2</c></rc>
    <rc><c>Ag</c><c>   2</c></rc>
    <rc><c>Ag</c><c>   2</c></rc>
    <rc><c>Ag</c><c>   2</c></rc>
    <rc><c>Ag</c><c>   2</c></rc>
    <rc><c>Ag</c><c>   2</c></rc>
    <rc><c>Ag</c><c>   2</c></rc>
    <rc><c>Ag</c><c>   2</c></rc>
    <rc><c>Ag</c><c>   2</c></rc>
    <rc><c>Ag</c><c>   2</c></rc>
    <rc><c>Ag</c><c>   2</c></rc>
    <rc><c>Ag</c><c>   2</c></rc>
    <rc><c>Ag</c><c>   2</c></rc>
    <rc><c>Ag</c><c>   2</c></rc>
    <rc><c>Ag</c><c>   2</c></rc>
    <rc><c>Ag</c><c>   2</c></rc>
    <rc><c>Ag</c><c>   2</c></rc>
    <rc><c>Ag</c><c>   2</c></rc>
    <rc><c>Ag</c><c>   2</c></rc>
    <rc><c>Ag</c><c>   2</c></rc>
    <rc><c>Ag</c><c>   2</c></rc>
    <rc><c>Ag</c><c>   2</c></rc>
    <rc><c>Ag</c><c>   2</c></rc>
    <rc><c>Ag</c><c>   2</c></rc>
    <rc><c>Ag</c><c>   2</c></rc>
    <rc><c>Ag</c><c>   2</c></rc>
    <rc><c>Ag</c><c>   2</c></rc>
    <rc><c>Ag</c><c>   2</c></rc>
    <rc><c>Ag</c><c>   2</c></rc>
    <rc><c>Ag</c><c>   2</c></rc>
    <rc><c>Ag</c><c>   2</c></rc>
    <rc><c>Ag</c><c>   2</c></rc>
    <rc><c>Ag</c><c>   2</c></rc>
    <rc><c>Ag</c><c>   2</c></rc>
    <rc><c>Ag</c><c>   2</c></rc>
    <rc><c>Ag</c><c>   2</c></rc>
    <rc><c>Ag</c><c>   2</c></rc>
    <rc><c>Ag</c><c>   2</c></rc>
    <rc><c>Ag</c><c>   2</c></rc>
    <rc><c>Ag</c><c>   2</c></rc>
    <rc><c>Ag</c><c>   2</c></rc>
    <rc><c>Ag</c><c>   2</c></rc>
    <rc><c>Ag</c><c>   2</c></rc>
    <rc><c>Ag</c><c>   2</c></rc>
    <rc><c>Ag</c><c>   2</c></rc>
    <rc><c>Ag</c><c>   2</c></rc>
    <rc><c>Ag</c><c>   2</c></rc>
    <rc><c>Ag</c><c>   2</c></rc>
    <rc><c>Ag</c><c>   2</c></rc>
    <rc><c>Ag</c><c>   2</c></rc>
    <rc><c>Ag</c><c>   2</c></rc>
    <rc><c>Ag</c><c>   2</c></rc>
    <rc><c>Ag</c><c>   2</c></rc>
    <rc><c>Ag</c><c>   2</c></rc>
    <rc><c>Ag</c><c>   2</c></rc>
    <rc><c>Ag</c><c>   2</c></rc>
    <rc><c>Ag</c><c>   2</c></rc>
    <rc><c>Ag</c><c>   2</c></rc>
    <rc><c>Ag</c><c>   2</c></rc>
    <rc><c>Ag</c><c>   2</c></rc>
    <rc><c>Ag</c><c>   2</c></rc>
    <rc><c>Ag</c><c>   2</c></rc>
    <rc><c>Ag</c><c>   2</c></rc>
    <rc><c>Ag</c><c>   2</c></rc>
    <rc><c>Ag</c><c>   2</c></rc>
    <rc><c>Ag</c><c>   2</c></rc>
    <rc><c>Ag</c><c>   2</c></rc>
    <rc><c>Ag</c><c>   2</c></rc>
    <rc><c>Ag</c><c>   2</c></rc>
    <rc><c>Ag</c><c>   2</c></rc>
    <rc><c>Ag</c><c>   2</c></rc>
    <rc><c>Ag</c><c>   2</c></rc>
    <rc><c>Ag</c><c>   2</c></rc>
    <rc><c>Ag</c><c>   2</c></rc>
    <rc><c>Ag</c><c>   2</c></rc>
    <rc><c>Ag</c><c>   2</c></rc>
    <rc><c>Ag</c><c>   2</c></rc>
    <rc><c>Ag</c><c>   2</c></rc>
    <rc><c>Ag</c><c>   2</c></rc>
    <rc><c>Ag</c><c>   2</c></rc>
    <rc><c>Ag</c><c>   2</c></rc>
    <rc><c>Ag</c><c>   2</c></rc>
    <rc><c>Ag</c><c>   2</c></rc>
    <rc><c>Ag</c><c>   2</c></rc>
    <rc><c>Ag</c><c>   2</c></rc>
    <rc><c>Ag</c><c>   2</c></rc>
    <rc><c>Ag</c><c>   2</c></rc>
    <rc><c>Ag</c><c>   2</c></rc>
    <rc><c>Ag</c><c>   2</c></rc>
    <rc><c>Ag</c><c>   2</c></rc>
    <rc><c>Ag</c><c>   2</c></rc>
    <rc><c>Ag</c><c>   2</c></rc>
    <rc><c>Ag</c><c>   2</c></rc>
   </set>
  </array>
  <array name="atomtypes" >
   <dimension dim="1">type</dimension>
   <field type="int">atomspertype</field>
   <field type="string">element</field>
   <field>mass</field>
   <field>valence</field>
   <field type="string">pseudopotential</field>
   <set>
    <rc><c>  64</c><c>Se</c><c>     78.96000000</c><c>      6.00000000</c><c>  PAW_PBE Se 06Sep2000                  </c></rc>
    <rc><c> 128</c><c>Ag</c><c>    107.86800000</c><c>     11.00000000</c><c>  PAW_PBE Ag 02Apr2005                  </c></rc>
   </set>
  </array>
 </atominfo>
 <structure name="initialpos" >
  <crystal>
   <varray name="basis" >
    <v>      17.67434300       0.00000000       0.02590756 </v>
    <v>       0.00000000      13.77516210       0.00000000 </v>
    <v>      -4.23144168       0.00000000      15.22594286 </v>
   </varray>
   <i name="volume">   3708.52383470 </i>
   <varray name="rec_basis" >
    <v>       0.05655615       0.00000000       0.01571752 </v>
    <v>       0.00000000       0.07259443       0.00000000 </v>
    <v>      -0.00009623       0.00000000       0.06565063 </v>
   </varray>
  </crystal>
  <varray name="positions" >
   <v>       0.08031353       0.12413882       0.07841826 </v>
   <v>       0.33031353       0.12413882       0.07841826 </v>
   <v>       0.58031353       0.12413882       0.07841826 </v>
   <v>       0.83031353       0.12413882       0.07841826 </v>
   <v>       0.08031353       0.62413882       0.07841826 </v>
   <v>       0.33031353       0.62413882       0.07841826 </v>
   <v>       0.58031353       0.62413882       0.07841826 </v>
   <v>       0.83031353       0.62413882       0.07841826 </v>
   <v>       0.08031353       0.12413882       0.57841826 </v>
   <v>       0.33031353       0.12413882       0.57841826 </v>
   <v>       0.58031353       0.12413882       0.57841826 </v>
   <v>       0.83031353       0.12413882       0.57841826 </v>
   <v>       0.08031353       0.62413882       0.57841826 </v>
   <v>       0.33031353       0.62413882       0.57841826 </v>
   <v>       0.58031353       0.62413882       0.57841826 </v>
   <v>       0.83031353       0.62413882       0.57841826 </v>
   <v>       0.04468646       0.37413882       0.17158168 </v>
   <v>       0.29468646       0.37413882       0.17158168 </v>
   <v>       0.54468646       0.37413882       0.17158168 </v>
   <v>       0.79468646       0.37413882       0.17158168 </v>
   <v>       0.04468646       0.87413882       0.17158168 </v>
   <v>       0.29468646       0.87413882       0.17158168 </v>
   <v>       0.54468646       0.87413882       0.17158168 </v>
   <v>       0.79468646       0.87413882       0.17158168 </v>
   <v>       0.04468646       0.37413882       0.67158168 </v>
   <v>       0.29468646       0.37413882       0.67158168 </v>
   <v>       0.54468646       0.37413882       0.67158168 </v>
   <v>       0.79468646       0.37413882       0.67158168 </v>
   <v>       0.04468646       0.87413882       0.67158168 </v>
   <v>       0.29468646       0.87413882       0.67158168 </v>
   <v>       0.54468646       0.87413882       0.67158168 </v>
   <v>       0.79468646       0.87413882       0.67158168 </v>
   <v>       0.16968646       0.37586118       0.42158168 </v>
   <v>       0.41968646       0.37586118       0.42158168 </v>
   <v>       0.66968646       0.37586118       0.42158168 </v>
   <v>       0.91968646       0.37586118       0.42158168 </v>
   <v>       0.16968646       0.87586118       0.42158168 </v>
   <v>       0.41968646       0.87586118       0.42158168 </v>
   <v>       0.66968646       0.87586118       0.42158168 </v>
   <v>       0.91968646       0.87586118       0.42158168 </v>
   <v>       0.16968646       0.37586118       0.92158168 </v>
   <v>       0.41968646       0.37586118       0.92158168 </v>
   <v>       0.66968646       0.37586118       0.92158168 </v>
   <v>       0.91968646       0.37586118       0.92158168 </v>
   <v>       0.16968646       0.87586118       0.92158168 </v>
   <v>       0.41968646       0.87586118       0.92158168 </v>
   <v>       0.66968646       0.87586118       0.92158168 </v>
   <v>       0.91968646       0.87586118       0.92158168 </v>
   <v>       0.20531353       0.12586118       0.32841826 </v>
   <v>       0.45531353       0.12586118       0.32841826 </v>
   <v>       0.70531353       0.12586118       0.32841826 </v>
   <v>       0.95531353       0.12586118       0.32841826 </v>
   <v>       0.20531353       0.62586118       0.32841826 </v>
   <v>       0.45531353       0.62586118       0.32841826 </v>
   <v>       0.70531353       0.62586118       0.32841826 </v>
   <v>       0.95531353       0.62586118       0.32841826 </v>
   <v>       0.20531353       0.12586118       0.82841826 </v>
   <v>       0.45531353       0.12586118       0.82841826 </v>
   <v>       0.70531353       0.12586118       0.82841826 </v>
   <v>       0.95531353       0.12586118       0.82841826 </v>
   <v>       0.20531353       0.62586118       0.82841826 </v>
   <v>       0.45531353       0.62586118       0.82841826 </v>
   <v>       0.70531353       0.62586118       0.82841826 </v>
   <v>       0.95531353       0.62586118       0.82841826 </v>
   <v>       0.19181221       0.01122259       0.17003418 </v>
   <v>       0.44181221       0.01122259       0.17003418 </v>
   <v>       0.69181221       0.01122259       0.17003418 </v>
   <v>       0.94181221       0.01122259       0.17003418 </v>
   <v>       0.19181221       0.51122259       0.17003418 </v>
   <v>       0.44181221       0.51122259       0.17003418 </v>
   <v>       0.69181221       0.51122259       0.17003418 </v>
   <v>       0.94181221       0.51122259       0.17003418 </v>
   <v>       0.19181221       0.01122259       0.67003418 </v>
   <v>       0.44181221       0.01122259       0.67003418 </v>
   <v>       0.69181221       0.01122259       0.67003418 </v>
   <v>       0.94181221       0.01122259       0.67003418 </v>
   <v>       0.19181221       0.51122259       0.67003418 </v>
   <v>       0.44181221       0.51122259       0.67003418 </v>
   <v>       0.69181221       0.51122259       0.67003418 </v>
   <v>       0.94181221       0.51122259       0.67003418 </v>
   <v>       0.18318778       0.26122259       0.07996576 </v>
   <v>       0.43318778       0.26122259       0.07996576 </v>
   <v>       0.68318778       0.26122259       0.07996576 </v>
   <v>       0.93318778       0.26122259       0.07996576 </v>
   <v>       0.18318778       0.76122259       0.07996576 </v>
   <v>       0.43318778       0.76122259       0.07996576 </v>
   <v>       0.68318778       0.76122259       0.07996576 </v>
   <v>       0.93318778       0.76122259       0.07996576 </v>
   <v>       0.18318778       0.26122259       0.57996576 </v>
   <v>       0.43318778       0.26122259       0.57996576 </v>
   <v>       0.68318778       0.26122259       0.57996576 </v>
   <v>       0.93318778       0.26122259       0.57996576 </v>
   <v>       0.18318778       0.76122259       0.57996576 </v>
   <v>       0.43318778       0.76122259       0.57996576 </v>
   <v>       0.68318778       0.76122259       0.57996576 </v>
   <v>       0.93318778       0.76122259       0.57996576 </v>
   <v>       0.05818778       0.48877741       0.32996576 </v>
   <v>       0.30818778       0.48877741       0.32996576 </v>
   <v>       0.55818778       0.48877741       0.32996576 </v>
   <v>       0.80818778       0.48877741       0.32996576 </v>
   <v>       0.05818778       0.98877741       0.32996576 </v>
   <v>       0.30818778       0.98877741       0.32996576 </v>
   <v>       0.55818778       0.98877741       0.32996576 </v>
   <v>       0.80818778       0.98877741       0.32996576 </v>
   <v>       0.05818778       0.48877741       0.82996576 </v>
   <v>       0.30818778       0.48877741       0.82996576 </v>
   <v>       0.55818778       0.48877741       0.82996576 </v>
   <v>       0.80818778       0.48877741       0.82996576 </v>
   <v>       0.05818778       0.98877741       0.82996576 </v>
   <v>       0.30818778       0.98877741       0.82996576 </v>
   <v>       0.55818778       0.98877741       0.82996576 </v>
   <v>       0.80818778       0.98877741       0.82996576 </v>
   <v>       0.06681221       0.23877741       0.42003418 </v>
   <v>       0.31681221       0.23877741       0.42003418 </v>
   <v>       0.56681221       0.23877741       0.42003418 </v>
   <v>       0.81681221       0.23877741       0.42003418 </v>
   <v>       0.06681221       0.73877741       0.42003418 </v>
   <v>       0.31681221       0.73877741       0.42003418 </v>
   <v>       0.56681221       0.73877741       0.42003418 </v>
   <v>       0.81681221       0.73877741       0.42003418 </v>
   <v>       0.06681221       0.23877741       0.92003418 </v>
   <v>       0.31681221       0.23877741       0.92003418 </v>
   <v>       0.56681221       0.23877741       0.92003418 </v>
   <v>       0.81681221       0.23877741       0.92003418 </v>
   <v>       0.06681221       0.73877741       0.92003418 </v>
   <v>       0.31681221       0.73877741       0.92003418 </v>
   <v>       0.56681221       0.73877741       0.92003418 </v>
   <v>       0.81681221       0.73877741       0.92003418 </v>
   <v>       0.05665091       0.18037250       0.23351950 </v>
   <v>       0.30608512       0.18037250       0.23351950 </v>
   <v>       0.55608512       0.18037250       0.23351950 </v>
   <v>       0.80608512       0.18037250       0.23351950 </v>
   <v>       0.05608512       0.68037250       0.23351950 </v>
   <v>       0.30608512       0.68037250       0.23351950 </v>
   <v>       0.55608512       0.68037250       0.23351950 </v>
   <v>       0.80608512       0.68037250       0.23351950 </v>
   <v>       0.05608512       0.18037250       0.73351950 </v>
   <v>       0.30608512       0.18037250       0.73351950 </v>
   <v>       0.55608512       0.18037250       0.73351950 </v>
   <v>       0.80608512       0.18037250       0.73351950 </v>
   <v>       0.05608512       0.68037250       0.73351950 </v>
   <v>       0.30608512       0.68037250       0.73351950 </v>
   <v>       0.55608512       0.68037250       0.73351950 </v>
   <v>       0.80608512       0.68037250       0.73351950 </v>
   <v>       0.06891487       0.43037250       0.01648043 </v>
   <v>       0.31891487       0.43037250       0.01648043 </v>
   <v>       0.56891487       0.43037250       0.01648043 </v>
   <v>       0.81891487       0.43037250       0.01648043 </v>
   <v>       0.06891487       0.93037250       0.01648043 </v>
   <v>       0.31891487       0.93037250       0.01648043 </v>
   <v>       0.56891487       0.93037250       0.01648043 </v>
   <v>       0.81891487       0.93037250       0.01648043 </v>
   <v>       0.06891487       0.43037250       0.51648043 </v>
   <v>       0.31891487       0.43037250       0.51648043 </v>
   <v>       0.56891487       0.43037250       0.51648043 </v>
   <v>       0.81891487       0.43037250       0.51648043 </v>
   <v>       0.06891487       0.93037250       0.51648043 </v>
   <v>       0.31891487       0.93037250       0.51648043 </v>
   <v>       0.56891487       0.93037250       0.51648043 </v>
   <v>       0.81891487       0.93037250       0.51648043 </v>
   <v>       0.19391487       0.31962750       0.26648043 </v>
   <v>       0.44391487       0.31962750       0.26648043 </v>
   <v>       0.69391487       0.31962750       0.26648043 </v>
   <v>       0.94391487       0.31962750       0.26648043 </v>
   <v>       0.19391487       0.81962750       0.26648043 </v>
   <v>       0.44391487       0.81962750       0.26648043 </v>
   <v>       0.69391487       0.81962750       0.26648043 </v>
   <v>       0.94391487       0.81962750       0.26648043 </v>
   <v>       0.19391487       0.31962750       0.76648043 </v>
   <v>       0.44391487       0.31962750       0.76648043 </v>
   <v>       0.69391487       0.31962750       0.76648043 </v>
   <v>       0.94391487       0.31962750       0.76648043 </v>
   <v>       0.19391487       0.81962750       0.76648043 </v>
   <v>       0.44391487       0.81962750       0.76648043 </v>
   <v>       0.69391487       0.81962750       0.76648043 </v>
   <v>       0.94391487       0.81962750       0.76648043 </v>
   <v>       0.18108512       0.06962750       0.48351950 </v>
   <v>       0.43108512       0.06962750       0.48351950 </v>
   <v>       0.68108512       0.06962750       0.48351950 </v>
   <v>       0.93108512       0.06962750       0.48351950 </v>
   <v>       0.18108512       0.56962750       0.48351950 </v>
   <v>       0.43108512       0.56962750       0.48351950 </v>
   <v>       0.68108512       0.56962750       0.48351950 </v>
   <v>       0.93108512       0.56962750       0.48351950 </v>
   <v>       0.18108512       0.06962750       0.98351950 </v>
   <v>       0.43108512       0.06962750       0.98351950 </v>
   <v>       0.68108512       0.06962750       0.98351950 </v>
   <v>       0.93108512       0.06962750       0.98351950 </v>
   <v>       0.18108512       0.56962750       0.98351950 </v>
   <v>       0.43108512       0.56962750       0.98351950 </v>
   <v>       0.68108512       0.56962750       0.98351950 </v>
   <v>       0.93108512       0.56962750       0.98351950 </v>
  </varray>
 </structure>
 <calculation>
  <scstep>
   <time name="dav"> 2180.01 2185.37</time>
   <time name="total"> 2184.10 2189.47</time>
   <energy>
    <i name="alphaZ">   6580.02941619 </i>
    <i name="ewald">-132336.87253428 </i>
    <i name="hartreedc"> -32543.55887330 </i>
    <i name="XCdc">  -1230.85764283 </i>
    <i name="pawpsdc"> 163058.89803092 </i>
    <i name="pawaedc">-156650.78792849 </i>
    <i name="eentropy">     -0.05472012 </i>
    <i name="bandstr">  18043.25009170 </i>
    <i name="atom"> 149175.97080046 </i>
    <i name="e_fr_energy">  14096.01664024 </i>
    <i name="e_wo_entrp">  14096.07136037 </i>
    <i name="e_0_energy">  14096.04400031 </i>
   </energy>
  </scstep>
  <scstep>
   <time name="dav"> 2426.16 2432.10</time>
   <time name="total"> 2426.17 2432.28</time>
   <energy>
    <i name="e_fr_energy">    199.20234468 </i>
    <i name="e_wo_entrp">    199.21393762 </i>
    <i name="e_0_energy">    199.20814115 </i>
   </energy>
  </scstep>
  <scstep>
   <time name="dav"> 2530.86 2536.96</time>
   <time name="total"> 2530.87 2537.11</time>
   <energy>
    <i name="e_fr_energy">   -655.01429494 </i>
    <i name="e_wo_entrp">   -655.00746227 </i>
    <i name="e_0_energy">   -655.01087860 </i>
   </energy>
  </scstep>
  <scstep>
   <time name="dav"> 2503.45 2509.64</time>
   <time name="total"> 2503.46 2509.80</time>
   <energy>
    <i name="e_fr_energy">   -676.15527696 </i>
    <i name="e_wo_entrp">   -676.14759443 </i>
    <i name="e_0_energy">   -676.15143570 </i>
   </energy>
  </scstep>
  <scstep>
   <time name="dav"> 2528.68 2534.97</time>
   <time name="total"> 2556.86 2563.35</time>
   <energy>
    <i name="e_fr_energy">   -676.43113834 </i>
    <i name="e_wo_entrp">   -676.42345356 </i>
    <i name="e_0_energy">   -676.42729595 </i>
   </energy>
  </scstep>
  <scstep>
   <time name="dav"> 2485.80 2491.94</time>
   <time name="total"> 2519.10 2525.44</time>
   <energy>
    <i name="e_fr_energy">   -676.41964181 </i>
    <i name="e_wo_entrp">   -676.41197515 </i>
    <i name="e_0_energy">   -676.41580848 </i>
   </energy>
  </scstep>
  <scstep>
   <time name="dav"> 2525.29 2531.40</time>
   <time name="total"> 2558.60 2564.94</time>
   <energy>
    <i name="e_fr_energy">   -676.42000786 </i>
    <i name="e_wo_entrp">   -676.41234274 </i>
    <i name="e_0_energy">   -676.41617530 </i>
   </energy>
  </scstep>
  <scstep>
   <time name="dav"> 2479.18 2485.26</time>
   <time name="total"> 2512.32 2518.63</time>
   <energy>
    <i name="e_fr_energy">   -676.42001882 </i>
    <i name="e_wo_entrp">   -676.41235412 </i>
    <i name="e_0_energy">   -676.41618647 </i>
   </energy>
  </scstep>
  <scstep>
   <time name="dav"> 2501.69 2507.84</time>
   <time name="total"> 2534.56 2540.80</time>
   <energy>
    <i name="e_fr_energy">   -676.42001615 </i>
    <i name="e_wo_entrp">   -676.41235182 </i>
    <i name="e_0_energy">   -676.41618399 </i>
   </energy>
  </scstep>
  <scstep>
   <time name="dav"> 2502.11 2508.32</time>
   <time name="total"> 2535.45 2541.96</time>
   <energy>
    <i name="e_fr_energy">   -676.42001522 </i>
    <i name="e_wo_entrp">   -676.41235085 </i>
    <i name="e_0_energy">   -676.41618304 </i>
   </energy>
  </scstep>
  <scstep>
   <time name="dav"> 2507.27 2513.44</time>
   <time name="total"> 2540.16 2546.54</time>
   <energy>
    <i name="e_fr_energy">   -676.42001494 </i>
    <i name="e_wo_entrp">   -676.41235051 </i>
    <i name="e_0_energy">   -676.41618272 </i>
   </energy>
  </scstep>
  <scstep>
   <time name="dav"> 1855.79 1860.34</time>
   <time name="total"> 1888.91 1893.79</time>
   <energy>
    <i name="e_fr_energy">   -676.42001492 </i>
    <i name="e_wo_entrp">   -676.41235047 </i>
    <i name="e_0_energy">   -676.41618270 </i>
   </energy>
  </scstep>
  <scstep>
   <time name="dav"> 1603.82 1607.74</time>
   <time name="total"> 1636.74 1640.87</time>
   <energy>
    <i name="e_fr_energy">   -676.42001495 </i>
    <i name="e_wo_entrp">   -676.41235050 </i>
    <i name="e_0_energy">   -676.41618273 </i>
   </energy>
  </scstep>
  <scstep>
   <time name="dav"> 1561.45 1565.19</time>
   <time name="total"> 1566.23 1570.33</time>
   <energy>
    <i name="alphaZ">   6580.02941619 </i>
    <i name="ewald">-132336.87253428 </i>
    <i name="hartreedc"> -32543.62077554 </i>
    <i name="XCdc">  -1230.85621577 </i>
    <i name="pawpsdc"> 163058.99850145 </i>
    <i name="pawaedc">-156650.92836675 </i>
    <i name="eentropy">     -0.00766444 </i>
    <i name="bandstr">   3270.86682373 </i>
    <i name="atom"> 149175.97080046 </i>
    <i name="e_fr_energy">   -676.42001495 </i>
    <i name="e_wo_entrp">   -676.41235050 </i>
    <i name="e_0_energy">   -676.41618272 </i>
   </energy>
  </scstep>
  <structure>
   <crystal>
    <varray name="basis" >
     <v>      17.67434300       0.00000000       0.02590756 </v>
     <v>       0.00000000      13.77516210       0.00000000 </v>
     <v>      -4.23144168       0.00000000      15.22594286 </v>
    </varray>
    <i name="volume">   3708.52383470 </i>
    <varray name="rec_basis" >
     <v>       0.05655615       0.00000000       0.01571752 </v>
     <v>       0.00000000       0.07259443       0.00000000 </v>
     <v>      -0.00009623       0.00000000       0.06565063 </v>
    </varray>
   </crystal>
   <varray name="positions" >
    <v>       0.08031353       0.12413882       0.07841826 </v>
    <v>       0.33031353       0.12413882       0.07841826 </v>
    <v>       0.58031353       0.12413882       0.07841826 </v>
    <v>       0.83031353       0.12413882       0.07841826 </v>
    <v>       0.08031353       0.62413882       0.07841826 </v>
    <v>       0.33031353       0.62413882       0.07841826 </v>
    <v>       0.58031353       0.62413882       0.07841826 </v>
    <v>       0.83031353       0.62413882       0.07841826 </v>
    <v>       0.08031353       0.12413882       0.57841826 </v>
    <v>       0.33031353       0.12413882       0.57841826 </v>
    <v>       0.58031353       0.12413882       0.57841826 </v>
    <v>       0.83031353       0.12413882       0.57841826 </v>
    <v>       0.08031353       0.62413882       0.57841826 </v>
    <v>       0.33031353       0.62413882       0.57841826 </v>
    <v>       0.58031353       0.62413882       0.57841826 </v>
    <v>       0.83031353       0.62413882       0.57841826 </v>
    <v>       0.04468646       0.37413882       0.17158168 </v>
    <v>       0.29468646       0.37413882       0.17158168 </v>
    <v>       0.54468646       0.37413882       0.17158168 </v>
    <v>       0.79468646       0.37413882       0.17158168 </v>
    <v>       0.04468646       0.87413882       0.17158168 </v>
    <v>       0.29468646       0.87413882       0.17158168 </v>
    <v>       0.54468646       0.87413882       0.17158168 </v>
    <v>       0.79468646       0.87413882       0.17158168 </v>
    <v>       0.04468646       0.37413882       0.67158168 </v>
    <v>       0.29468646       0.37413882       0.67158168 </v>
    <v>       0.54468646       0.37413882       0.67158168 </v>
    <v>       0.79468646       0.37413882       0.67158168 </v>
    <v>       0.04468646       0.87413882       0.67158168 </v>
    <v>       0.29468646       0.87413882       0.67158168 </v>
    <v>       0.54468646       0.87413882       0.67158168 </v>
    <v>       0.79468646       0.87413882       0.67158168 </v>
    <v>       0.16968646       0.37586118       0.42158168 </v>
    <v>       0.41968646       0.37586118       0.42158168 </v>
    <v>       0.66968646       0.37586118       0.42158168 </v>
    <v>       0.91968646       0.37586118       0.42158168 </v>
    <v>       0.16968646       0.87586118       0.42158168 </v>
    <v>       0.41968646       0.87586118       0.42158168 </v>
    <v>       0.66968646       0.87586118       0.42158168 </v>
    <v>       0.91968646       0.87586118       0.42158168 </v>
    <v>       0.16968646       0.37586118       0.92158168 </v>
    <v>       0.41968646       0.37586118       0.92158168 </v>
    <v>       0.66968646       0.37586118       0.92158168 </v>
    <v>       0.91968646       0.37586118       0.92158168 </v>
    <v>       0.16968646       0.87586118       0.92158168 </v>
    <v>       0.41968646       0.87586118       0.92158168 </v>
    <v>       0.66968646       0.87586118       0.92158168 </v>
    <v>       0.91968646       0.87586118       0.92158168 </v>
    <v>       0.20531353       0.12586118       0.32841826 </v>
    <v>       0.45531353       0.12586118       0.32841826 </v>
    <v>       0.70531353       0.12586118       0.32841826 </v>
    <v>       0.95531353       0.12586118       0.32841826 </v>
    <v>       0.20531353       0.62586118       0.32841826 </v>
    <v>       0.45531353       0.62586118       0.32841826 </v>
    <v>       0.70531353       0.62586118       0.32841826 </v>
    <v>       0.95531353       0.62586118       0.32841826 </v>
    <v>       0.20531353       0.12586118       0.82841826 </v>
    <v>       0.45531353       0.12586118       0.82841826 </v>
    <v>       0.70531353       0.12586118       0.82841826 </v>
    <v>       0.95531353       0.12586118       0.82841826 </v>
    <v>       0.20531353       0.62586118       0.82841826 </v>
    <v>       0.45531353       0.62586118       0.82841826 </v>
    <v>       0.70531353       0.62586118       0.82841826 </v>
    <v>       0.95531353       0.62586118       0.82841826 </v>
    <v>       0.19181221       0.01122259       0.17003418 </v>
    <v>       0.44181221       0.01122259       0.17003418 </v>
    <v>       0.69181221       0.01122259       0.17003418 </v>
    <v>       0.94181221       0.01122259       0.17003418 </v>
    <v>       0.19181221       0.51122259       0.17003418 </v>
    <v>       0.44181221       0.51122259       0.17003418 </v>
    <v>       0.69181221       0.51122259       0.17003418 </v>
    <v>       0.94181221       0.51122259       0.17003418 </v>
    <v>       0.19181221       0.01122259       0.67003418 </v>
    <v>       0.44181221       0.01122259       0.67003418 </v>
    <v>       0.69181221       0.01122259       0.67003418 </v>
    <v>       0.94181221       0.01122259       0.67003418 </v>
    <v>       0.19181221       0.51122259       0.67003418 </v>
    <v>       0.44181221       0.51122259       0.67003418 </v>
    <v>       0.69181221       0.51122259       0.67003418 </v>
    <v>       0.94181221       0.51122259       0.67003418 </v>
    <v>       0.18318778       0.26122259       0.07996576 </v>
    <v>       0.43318778       0.26122259       0.07996576 </v>
    <v>       0.68318778       0.26122259       0.07996576 </v>
    <v>       0.93318778       0.26122259       0.07996576 </v>
    <v>       0.18318778       0.76122259       0.07996576 </v>
    <v>       0.43318778       0.76122259       0.07996576 </v>
    <v>       0.68318778       0.76122259       0.07996576 </v>
    <v>       0.93318778       0.76122259       0.07996576 </v>
    <v>       0.18318778       0.26122259       0.57996576 </v>
    <v>       0.43318778       0.26122259       0.57996576 </v>
    <v>       0.68318778       0.26122259       0.57996576 </v>
    <v>       0.93318778       0.26122259       0.57996576 </v>
    <v>       0.18318778       0.76122259       0.57996576 </v>
    <v>       0.43318778       0.76122259       0.57996576 </v>
    <v>       0.68318778       0.76122259       0.57996576 </v>
    <v>       0.93318778       0.76122259       0.57996576 </v>
    <v>       0.05818778       0.48877741       0.32996576 </v>
    <v>       0.30818778       0.48877741       0.32996576 </v>
    <v>       0.55818778       0.48877741       0.32996576 </v>
    <v>       0.80818778       0.48877741       0.32996576 </v>
    <v>       0.05818778       0.98877741       0.32996576 </v>
    <v>       0.30818778       0.98877741       0.32996576 </v>
    <v>       0.55818778       0.98877741       0.32996576 </v>
    <v>       0.80818778       0.98877741       0.32996576 </v>
    <v>       0.05818778       0.48877741       0.82996576 </v>
    <v>       0.30818778       0.48877741       0.82996576 </v>
    <v>       0.55818778       0.48877741       0.82996576 </v>
    <v>       0.80818778       0.48877741       0.82996576 </v>
    <v>       0.05818778       0.98877741       0.82996576 </v>
    <v>       0.30818778       0.98877741       0.82996576 </v>
    <v>       0.55818778       0.98877741       0.82996576 </v>
    <v>       0.80818778       0.98877741       0.82996576 </v>
    <v>       0.06681221       0.23877741       0.42003418 </v>
    <v>       0.31681221       0.23877741       0.42003418 </v>
    <v>       0.56681221       0.23877741       0.42003418 </v>
    <v>       0.81681221       0.23877741       0.42003418 </v>
    <v>       0.06681221       0.73877741       0.42003418 </v>
    <v>       0.31681221       0.73877741       0.42003418 </v>
    <v>       0.56681221       0.73877741       0.42003418 </v>
    <v>       0.81681221       0.73877741       0.42003418 </v>
    <v>       0.06681221       0.23877741       0.92003418 </v>
    <v>       0.31681221       0.23877741       0.92003418 </v>
    <v>       0.56681221       0.23877741       0.92003418 </v>
    <v>       0.81681221       0.23877741       0.92003418 </v>
    <v>       0.06681221       0.73877741       0.92003418 </v>
    <v>       0.31681221       0.73877741       0.92003418 </v>
    <v>       0.56681221       0.73877741       0.92003418 </v>
    <v>       0.81681221       0.73877741       0.92003418 </v>
    <v>       0.05665091       0.18037250       0.23351950 </v>
    <v>       0.30608512       0.18037250       0.23351950 </v>
    <v>       0.55608512       0.18037250       0.23351950 </v>
    <v>       0.80608512       0.18037250       0.23351950 </v>
    <v>       0.05608512       0.68037250       0.23351950 </v>
    <v>       0.30608512       0.68037250       0.23351950 </v>
    <v>       0.55608512       0.68037250       0.23351950 </v>
    <v>       0.80608512       0.68037250       0.23351950 </v>
    <v>       0.05608512       0.18037250       0.73351950 </v>
    <v>       0.30608512       0.18037250       0.73351950 </v>
    <v>       0.55608512       0.18037250       0.73351950 </v>
    <v>       0.80608512       0.18037250       0.73351950 </v>
    <v>       0.05608512       0.68037250       0.73351950 </v>
    <v>       0.30608512       0.68037250       0.73351950 </v>
    <v>       0.55608512       0.68037250       0.73351950 </v>
    <v>       0.80608512       0.68037250       0.73351950 </v>
    <v>       0.06891487       0.43037250       0.01648043 </v>
    <v>       0.31891487       0.43037250       0.01648043 </v>
    <v>       0.56891487       0.43037250       0.01648043 </v>
    <v>       0.81891487       0.43037250       0.01648043 </v>
    <v>       0.06891487       0.93037250       0.01648043 </v>
    <v>       0.31891487       0.93037250       0.01648043 </v>
    <v>       0.56891487       0.93037250       0.01648043 </v>
    <v>       0.81891487       0.93037250       0.01648043 </v>
    <v>       0.06891487       0.43037250       0.51648043 </v>
    <v>       0.31891487       0.43037250       0.51648043 </v>
    <v>       0.56891487       0.43037250       0.51648043 </v>
    <v>       0.81891487       0.43037250       0.51648043 </v>
    <v>       0.06891487       0.93037250       0.51648043 </v>
    <v>       0.31891487       0.93037250       0.51648043 </v>
    <v>       0.56891487       0.93037250       0.51648043 </v>
    <v>       0.81891487       0.93037250       0.51648043 </v>
    <v>       0.19391487       0.31962750       0.26648043 </v>
    <v>       0.44391487       0.31962750       0.26648043 </v>
    <v>       0.69391487       0.31962750       0.26648043 </v>
    <v>       0.94391487       0.31962750       0.26648043 </v>
    <v>       0.19391487       0.81962750       0.26648043 </v>
    <v>       0.44391487       0.81962750       0.26648043 </v>
    <v>       0.69391487       0.81962750       0.26648043 </v>
    <v>       0.94391487       0.81962750       0.26648043 </v>
    <v>       0.19391487       0.31962750       0.76648043 </v>
    <v>       0.44391487       0.31962750       0.76648043 </v>
    <v>       0.69391487       0.31962750       0.76648043 </v>
    <v>       0.94391487       0.31962750       0.76648043 </v>
    <v>       0.19391487       0.81962750       0.76648043 </v>
    <v>       0.44391487       0.81962750       0.76648043 </v>
    <v>       0.69391487       0.81962750       0.76648043 </v>
    <v>       0.94391487       0.81962750       0.76648043 </v>
    <v>       0.18108512       0.06962750       0.48351950 </v>
    <v>       0.43108512       0.06962750       0.48351950 </v>
    <v>       0.68108512       0.06962750       0.48351950 </v>
    <v>       0.93108512       0.06962750       0.48351950 </v>
    <v>       0.18108512       0.56962750       0.48351950 </v>
    <v>       0.43108512       0.56962750       0.48351950 </v>
    <v>       0.68108512       0.56962750       0.48351950 </v>
    <v>       0.93108512       0.56962750       0.48351950 </v>
    <v>       0.18108512       0.06962750       0.98351950 </v>
    <v>       0.43108512       0.06962750       0.98351950 </v>
    <v>       0.68108512       0.06962750       0.98351950 </v>
    <v>       0.93108512       0.06962750       0.98351950 </v>
    <v>       0.18108512       0.56962750       0.98351950 </v>
    <v>       0.43108512       0.56962750       0.98351950 </v>
    <v>       0.68108512       0.56962750       0.98351950 </v>
    <v>       0.93108512       0.56962750       0.98351950 </v>
   </varray>
  </structure>
  <varray name="forces" >
   <v>      -0.00143124      -0.00207356      -0.01166594 </v>
   <v>      -0.00359072       0.00033956      -0.00238884 </v>
   <v>      -0.00363974       0.00037598      -0.00253100 </v>
   <v>      -0.00262477       0.00060448      -0.00210415 </v>
   <v>      -0.00355764       0.00059609      -0.00248024 </v>
   <v>      -0.00363973       0.00027615      -0.00238394 </v>
   <v>      -0.00364377       0.00038416      -0.00243746 </v>
   <v>      -0.00355632       0.00037971      -0.00247853 </v>
   <v>      -0.00329909       0.00036271      -0.00213518 </v>
   <v>      -0.00364344       0.00045877      -0.00303634 </v>
   <v>      -0.00364692       0.00036802      -0.00243123 </v>
   <v>      -0.00361801       0.00037766      -0.00231323 </v>
   <v>      -0.00345990       0.00036186      -0.00249911 </v>
   <v>      -0.00360460       0.00035969      -0.00247194 </v>
   <v>      -0.00365090       0.00035577      -0.00242203 </v>
   <v>      -0.00368645       0.00037086      -0.00230313 </v>
   <v>       0.00174450       0.00018147       0.00238030 </v>
   <v>       0.00346680       0.00019800       0.00269914 </v>
   <v>       0.00345112       0.00036729       0.00244150 </v>
   <v>       0.00346267       0.00039419       0.00238855 </v>
   <v>       0.00361407       0.00082907       0.00238399 </v>
   <v>       0.00369943       0.00025819       0.00254274 </v>
   <v>       0.00354307       0.00039673       0.00244131 </v>
   <v>       0.00350442       0.00029621       0.00236447 </v>
   <v>       0.00366620       0.00039268       0.00251449 </v>
   <v>       0.00361129       0.00034441       0.00239823 </v>
   <v>       0.00357272       0.00035425       0.00240647 </v>
   <v>       0.00354507       0.00035185       0.00244847 </v>
   <v>       0.00367541       0.00033221       0.00249597 </v>
   <v>       0.00360598       0.00039969       0.00244861 </v>
   <v>       0.00355535       0.00037303       0.00239946 </v>
   <v>       0.00356621       0.00037898       0.00246652 </v>
   <v>       0.00382594      -0.00039658       0.00261107 </v>
   <v>       0.00360459      -0.00039556       0.00234392 </v>
   <v>       0.00350594      -0.00037354       0.00243116 </v>
   <v>       0.00359504      -0.00019023       0.00256932 </v>
   <v>       0.00378301      -0.00019633       0.00229827 </v>
   <v>       0.00345967      -0.00026294       0.00246604 </v>
   <v>       0.00350331      -0.00038802       0.00246990 </v>
   <v>       0.00346339      -0.00116853       0.00274396 </v>
   <v>       0.00361892      -0.00036793       0.00248505 </v>
   <v>       0.00356812      -0.00041118       0.00243880 </v>
   <v>       0.00356079      -0.00038946       0.00238548 </v>
   <v>       0.00367123      -0.00024616       0.00224382 </v>
   <v>       0.00357741      -0.00025650       0.00258465 </v>
   <v>       0.00355423      -0.00036672       0.00243737 </v>
   <v>       0.00357308      -0.00037224       0.00241488 </v>
   <v>       0.00366967      -0.00034221       0.00242222 </v>
   <v>       0.00468340      -0.00396083       0.00591155 </v>
   <v>      -0.00406779      -0.00037780      -0.00239425 </v>
   <v>      -0.00414877      -0.00032134      -0.00251389 </v>
   <v>       0.00611037       0.00411055      -0.00868829 </v>
   <v>      -0.00359742      -0.00040239      -0.00240299 </v>
   <v>      -0.00364548      -0.00034084      -0.00240625 </v>
   <v>      -0.00365761      -0.00032985      -0.00240882 </v>
   <v>      -0.00343532      -0.00042988      -0.00249819 </v>
   <v>      -0.00356914      -0.00033308      -0.00229888 </v>
   <v>      -0.00369714      -0.00039899      -0.00258762 </v>
   <v>      -0.00364314      -0.00038170      -0.00240051 </v>
   <v>      -0.00345625      -0.00037856      -0.00215867 </v>
   <v>      -0.00357542      -0.00033821      -0.00240097 </v>
   <v>      -0.00362518      -0.00036506      -0.00242666 </v>
   <v>      -0.00362921      -0.00035656      -0.00242065 </v>
   <v>      -0.00358245      -0.00035750      -0.00243756 </v>
   <v>       0.00103859      -0.00088378      -0.00126694 </v>
   <v>       0.00041666       0.00042157      -0.00076709 </v>
   <v>       0.00043600       0.00045177      -0.00069234 </v>
   <v>       0.00125230       0.00265031       0.00099046 </v>
   <v>       0.00022408       0.00040517      -0.00068403 </v>
   <v>       0.00043706       0.00047892      -0.00077187 </v>
   <v>       0.00044201       0.00037881      -0.00077926 </v>
   <v>       0.00013410       0.00048368      -0.00054712 </v>
   <v>       0.00027903       0.00049405      -0.00080779 </v>
   <v>       0.00043509       0.00040965      -0.00066311 </v>
   <v>       0.00040031       0.00044135      -0.00074185 </v>
   <v>       0.00040251       0.00047685      -0.00090185 </v>
   <v>       0.00034422       0.00043634      -0.00077426 </v>
   <v>       0.00038497       0.00044774      -0.00074251 </v>
   <v>       0.00039178       0.00045562      -0.00074708 </v>
   <v>       0.00036015       0.00046315      -0.00076396 </v>
   <v>       0.00010096       0.00075969       0.00036258 </v>
[...]
       <r>     2.7512   638.2601  1186.5193 </r>
       <r>     2.8230   696.2507  1236.4780 </r>
       <r>     2.8948   561.0891  1276.7383 </r>
       <r>     2.9665   469.8899  1310.4547 </r>
       <r>     3.0383   462.5456  1343.6441 </r>
       <r>     3.1100   453.4527  1376.1811 </r>
       <r>     3.1818   427.4899  1406.8551 </r>
       <r>     3.2535   360.7415  1432.7397 </r>
       <r>     3.3253   229.5479  1449.2106 </r>
       <r>     3.3970   185.6607  1462.5325 </r>
       <r>     3.4688   185.8218  1475.8659 </r>
       <r>     3.5405   190.3716  1489.5258 </r>
       <r>     3.6123   204.9254  1504.2300 </r>
       <r>     3.6840   180.0721  1517.1508 </r>
       <r>     3.7558   121.5846  1525.8750 </r>
       <r>     3.8276    94.4594  1532.6528 </r>
       <r>     3.8993   100.7925  1539.8851 </r>
       <r>     3.9711   120.8974  1548.5599 </r>
       <r>     4.0428    97.8492  1555.5810 </r>
       <r>     4.1146   101.9129  1562.8936 </r>
       <r>     4.1863   156.5788  1574.1287 </r>
       <r>     4.2581    96.9822  1581.0876 </r>
       <r>     4.3298    87.3905  1587.3582 </r>
       <r>     4.4016    93.4470  1594.0634 </r>
       <r>     4.4733    92.0724  1600.6699 </r>
       <r>     4.5451   149.4447  1611.3931 </r>
       <r>     4.6168   116.0131  1619.7175 </r>
       <r>     4.6886    92.8198  1626.3777 </r>
       <r>     4.7604   112.8115  1634.4724 </r>
       <r>     4.8321    85.4298  1640.6023 </r>
       <r>     4.9039   102.4233  1647.9515 </r>
       <r>     4.9756   170.2299  1660.1662 </r>
       <r>     5.0474   129.5567  1669.4624 </r>
       <r>     5.1191    69.1622  1674.4250 </r>
       <r>     5.1909    93.8203  1681.1570 </r>
       <r>     5.2626    74.0252  1686.4686 </r>
       <r>     5.3344   124.0096  1695.3667 </r>
       <r>     5.4061   144.0121  1705.7002 </r>
       <r>     5.4779   118.6849  1714.2162 </r>
       <r>     5.5496    72.3264  1719.4059 </r>
       <r>     5.6214    93.9380  1726.1464 </r>
       <r>     5.6932   141.5836  1736.3055 </r>
       <r>     5.7649   155.7019  1747.4777 </r>
       <r>     5.8367   106.4953  1755.1192 </r>
       <r>     5.9084   120.5528  1763.7693 </r>
       <r>     5.9802   116.3375  1772.1169 </r>
       <r>     6.0519    85.7234  1778.2679 </r>
       <r>     6.1237    61.9518  1782.7132 </r>
       <r>     6.1954    42.3151  1785.7495 </r>
       <r>     6.2672    37.2261  1788.4206 </r>
       <r>     6.3389    30.3782  1790.6003 </r>
       <r>     6.4107    13.5435  1791.5721 </r>
       <r>     6.4824     7.4593  1792.1074 </r>
       <r>     6.5542     2.4114  1792.2804 </r>
       <r>     6.6260     4.5397  1792.6061 </r>
       <r>     6.6977     2.8116  1792.8079 </r>
       <r>     6.7695     2.3663  1792.9777 </r>
       <r>     6.8412     1.7070  1793.1001 </r>
       <r>     6.9130    11.4047  1793.9185 </r>
       <r>     6.9847    15.0349  1794.9973 </r>
       <r>     7.0565    10.3438  1795.7395 </r>
       <r>     7.1282    10.5982  1796.5000 </r>
       <r>     7.2000    25.6642  1798.3415 </r>
       <r>     7.2717    30.9979  1800.5657 </r>
       <r>     7.3435    18.5327  1801.8955 </r>
       <r>     7.4152    32.0697  1804.1966 </r>
       <r>     7.4870    35.1853  1806.7213 </r>
       <r>     7.5588    37.3229  1809.3993 </r>
       <r>     7.6305    57.5790  1813.5309 </r>
       <r>     7.7023    67.2624  1818.3572 </r>
       <r>     7.7740    72.8573  1823.5850 </r>
       <r>     7.8458    73.2586  1828.8416 </r>
       <r>     7.9175    62.3083  1833.3124 </r>
       <r>     7.9893    57.9955  1837.4738 </r>
       <r>     8.0610    77.9295  1843.0656 </r>
       <r>     8.1328    81.3695  1848.9041 </r>
       <r>     8.2045    83.2486  1854.8775 </r>
       <r>     8.2763    73.1330  1860.1251 </r>
       <r>     8.3480    66.5092  1864.8974 </r>
       <r>     8.4198    74.0725  1870.2124 </r>
       <r>     8.4916    89.0555  1876.6025 </r>
       <r>     8.5633    74.9744  1881.9822 </r>
       <r>     8.6351    57.6053  1886.1156 </r>
       <r>     8.7068    81.3332  1891.9515 </r>
       <r>     8.7786    84.2909  1897.9997 </r>
       <r>     8.8503    57.2798  1902.1098 </r>
       <r>     8.9221    46.2250  1905.4266 </r>
       <r>     8.9938    40.1057  1908.3043 </r>
       <r>     9.0656    53.2080  1912.1222 </r>
       <r>     9.1373    85.8244  1918.2804 </r>
       <r>     9.2091    63.8358  1922.8609 </r>
       <r>     9.2808    49.1967  1926.3909 </r>
       <r>     9.3526    57.1334  1930.4905 </r>
       <r>     9.4244    67.7635  1935.3528 </r>
       <r>     9.4961    63.0442  1939.8764 </r>
       <r>     9.5679    40.7668  1942.8016 </r>
       <r>     9.6396    71.4432  1947.9279 </r>
       <r>     9.7114   104.3223  1955.4135 </r>
       <r>     9.7831   107.0991  1963.0982 </r>
       <r>     9.8549    87.9343  1969.4079 </r>
       <r>     9.9266    76.4822  1974.8957 </r>
       <r>     9.9984    57.5184  1979.0229 </r>
       <r>    10.0701    84.5203  1985.0876 </r>
       <r>    10.1419    87.9953  1991.4016 </r>
       <r>    10.2136   100.4146  1998.6067 </r>
       <r>    10.2854   108.7947  2006.4131 </r>
       <r>    10.3572   113.3455  2014.5461 </r>
       <r>    10.4289   110.1373  2022.4489 </r>
       <r>    10.5007    93.0815  2029.1278 </r>
       <r>    10.5724    73.2864  2034.3864 </r>
       <r>    10.6442    76.0884  2039.8460 </r>
       <r>    10.7159    69.3123  2044.8195 </r>
       <r>    10.7877    68.1302  2049.7081 </r>
       <r>    10.8594    72.4009  2054.9031 </r>
       <r>    10.9312    71.8253  2060.0568 </r>
       <r>    11.0029    55.5851  2064.0453 </r>
       <r>    11.0747    93.8646  2070.7804 </r>
       <r>    11.1464   104.5187  2078.2801 </r>
       <r>    11.2182    80.6654  2084.0681 </r>
       <r>    11.2900    94.8887  2090.8767 </r>
       <r>    11.3617    81.6579  2096.7360 </r>
       <r>    11.4335   107.2336  2104.4304 </r>
       <r>    11.5052   129.6303  2113.7319 </r>
       <r>    11.5770   118.3349  2122.2229 </r>
       <r>    11.6487   104.9340  2129.7523 </r>
       <r>    11.7205    62.6421  2134.2471 </r>
       <r>    11.7922    90.4038  2140.7339 </r>
       <r>    11.8640    49.6527  2144.2967 </r>
       <r>    11.9357    26.9791  2146.2325 </r>
       <r>    12.0075    13.7680  2147.2205 </r>
       <r>    12.0792    19.3007  2148.6054 </r>
       <r>    12.1510    13.1735  2149.5506 </r>
       <r>    12.2228     5.7822  2149.9655 </r>
       <r>    12.2945     0.4791  2149.9999 </r>
       <r>    12.3663     0.0017  2150.0000 </r>
       <r>    12.4380     0.0000  2150.0000 </r>
       <r>    12.5098     0.0000  2150.0000 </r>
       <r>    12.5815     0.0000  2150.0000 </r>
       <r>    12.6533     0.0000  2150.0000 </r>
       <r>    12.7250     0.0000  2150.0000 </r>
       <r>    12.7968     0.0000  2150.0000 </r>
       <r>    12.8685     0.0000  2150.0000 </r>
       <r>    12.9403     0.0000  2150.0000 </r>
       <r>    13.0120     0.0000  2150.0000 </r>
       <r>    13.0838     0.0000  2150.0000 </r>
       <r>    13.1556     0.0000  2150.0000 </r>
      </set>
     </set>
    </array>
   </total>
  </dos>
 </calculation>
 <structure name="finalpos" >
  <crystal>
   <varray name="basis" >
    <v>      17.67434300       0.00000000       0.02590756 </v>
    <v>       0.00000000      13.77516210       0.00000000 </v>
    <v>      -4.23144168       0.00000000      15.22594286 </v>
   </varray>
   <i name="volume">   3708.52383470 </i>
   <varray name="rec_basis" >
    <v>       0.05655615       0.00000000       0.01571752 </v>
    <v>       0.00000000       0.07259443       0.00000000 </v>
    <v>      -0.00009623       0.00000000       0.06565063 </v>
   </varray>
  </crystal>
  <varray name="positions" >
   <v>       0.08031353       0.12413882       0.07841826 </v>
   <v>       0.33031353       0.12413882       0.07841826 </v>
   <v>       0.58031353       0.12413882       0.07841826 </v>
   <v>       0.83031353       0.12413882       0.07841826 </v>
   <v>       0.08031353       0.62413882       0.07841826 </v>
   <v>       0.33031353       0.62413882       0.07841826 </v>
   <v>       0.58031353       0.62413882       0.07841826 </v>
   <v>       0.83031353       0.62413882       0.07841826 </v>
   <v>       0.08031353       0.12413882       0.57841826 </v>
   <v>       0.33031353       0.12413882       0.57841826 </v>
   <v>       0.58031353       0.12413882       0.57841826 </v>
   <v>       0.83031353       0.12413882       0.57841826 </v>
   <v>       0.08031353       0.62413882       0.57841826 </v>
   <v>       0.33031353       0.62413882       0.57841826 </v>
   <v>       0.58031353       0.62413882       0.57841826 </v>
   <v>       0.83031353       0.62413882       0.57841826 </v>
   <v>       0.04468646       0.37413882       0.17158168 </v>
   <v>       0.29468646       0.37413882       0.17158168 </v>
   <v>       0.54468646       0.37413882       0.17158168 </v>
   <v>       0.79468646       0.37413882       0.17158168 </v>
   <v>       0.04468646       0.87413882       0.17158168 </v>
   <v>       0.29468646       0.87413882       0.17158168 </v>
   <v>       0.54468646       0.87413882       0.17158168 </v>
   <v>       0.79468646       0.87413882       0.17158168 </v>
   <v>       0.04468646       0.37413882       0.67158168 </v>
   <v>       0.29468646       0.37413882       0.67158168 </v>
   <v>       0.54468646       0.37413882       0.67158168 </v>
   <v>       0.79468646       0.37413882       0.67158168 </v>
   <v>       0.04468646       0.87413882       0.67158168 </v>
   <v>       0.29468646       0.87413882       0.67158168 </v>
   <v>       0.54468646       0.87413882       0.67158168 </v>
   <v>       0.79468646       0.87413882       0.67158168 </v>
   <v>       0.16968646       0.37586118       0.42158168 </v>
   <v>       0.41968646       0.37586118       0.42158168 </v>
   <v>       0.66968646       0.37586118       0.42158168 </v>
   <v>       0.91968646       0.37586118       0.42158168 </v>
   <v>       0.16968646       0.87586118       0.42158168 </v>
   <v>       0.41968646       0.87586118       0.42158168 </v>
   <v>       0.66968646       0.87586118       0.42158168 </v>
   <v>       0.91968646       0.87586118       0.42158168 </v>
   <v>       0.16968646       0.37586118       0.92158168 </v>
   <v>       0.41968646       0.37586118       0.92158168 </v>
   <v>       0.66968646       0.37586118       0.92158168 </v>
   <v>       0.91968646       0.37586118       0.92158168 </v>
   <v>       0.16968646       0.87586118       0.92158168 </v>
   <v>       0.41968646       0.87586118       0.92158168 </v>
   <v>       0.66968646       0.87586118       0.92158168 </v>
   <v>       0.91968646       0.87586118       0.92158168 </v>
   <v>       0.20531353       0.12586118       0.32841826 </v>
   <v>       0.45531353       0.12586118       0.32841826 </v>
   <v>       0.70531353       0.12586118       0.32841826 </v>
   <v>       0.95531353       0.12586118       0.32841826 </v>
   <v>       0.20531353       0.62586118       0.32841826 </v>
   <v>       0.45531353       0.62586118       0.32841826 </v>
   <v>       0.70531353       0.62586118       0.32841826 </v>
   <v>       0.95531353       0.62586118       0.32841826 </v>
   <v>       0.20531353       0.12586118       0.82841826 </v>
   <v>       0.45531353       0.12586118       0.82841826 </v>
   <v>       0.70531353       0.12586118       0.82841826 </v>
   <v>       0.95531353       0.12586118       0.82841826 </v>
   <v>       0.20531353       0.62586118       0.82841826 </v>
   <v>       0.45531353       0.62586118       0.82841826 </v>
   <v>       0.70531353       0.62586118       0.82841826 </v>
   <v>       0.95531353       0.62586118       0.82841826 </v>
   <v>       0.19181221       0.01122259       0.17003418 </v>
   <v>       0.44181221       0.01122259       0.17003418 </v>
   <v>       0.69181221       0.01122259       0.17003418 </v>
   <v>       0.94181221       0.01122259       0.17003418 </v>
   <v>       0.19181221       0.51122259       0.17003418 </v>
   <v>       0.44181221       0.51122259       0.17003418 </v>
   <v>       0.69181221       0.51122259       0.17003418 </v>
   <v>       0.94181221       0.51122259       0.17003418 </v>
   <v>       0.19181221       0.01122259       0.67003418 </v>
   <v>       0.44181221       0.01122259       0.67003418 </v>
   <v>       0.69181221       0.01122259       0.67003418 </v>
   <v>       0.94181221       0.01122259       0.67003418 </v>
   <v>       0.19181221       0.51122259       0.67003418 </v>
   <v>       0.44181221       0.51122259       0.67003418 </v>
   <v>       0.69181221       0.51122259       0.67003418 </v>
   <v>       0.94181221       0.51122259       0.67003418 </v>
   <v>       0.18318778       0.26122259       0.07996576 </v>
   <v>       0.43318778       0.26122259       0.07996576 </v>
   <v>       0.68318778       0.26122259       0.07996576 </v>
   <v>       0.93318778       0.26122259       0.07996576 </v>
   <v>       0.18318778       0.76122259       0.07996576 </v>
   <v>       0.43318778       0.76122259       0.07996576 </v>
   <v>       0.68318778       0.76122259       0.07996576 </v>
   <v>       0.93318778       0.76122259       0.07996576 </v>
   <v>       0.18318778       0.26122259       0.57996576 </v>
   <v>       0.43318778       0.26122259       0.57996576 </v>
   <v>       0.68318778       0.26122259       0.57996576 </v>
   <v>       0.93318778       0.26122259       0.57996576 </v>
   <v>       0.18318778       0.76122259       0.57996576 </v>
   <v>       0.43318778       0.76122259       0.57996576 </v>
   <v>       0.68318778       0.76122259       0.57996576 </v>
   <v>       0.93318778       0.76122259       0.57996576 </v>
   <v>       0.05818778       0.48877741       0.32996576 </v>
   <v>       0.30818778       0.48877741       0.32996576 </v>
   <v>       0.55818778       0.48877741       0.32996576 </v>
   <v>       0.80818778       0.48877741       0.32996576 </v>
   <v>       0.05818778       0.98877741       0.32996576 </v>
   <v>       0.30818778       0.98877741       0.32996576 </v>
   <v>       0.55818778       0.98877741       0.32996576 </v>
   <v>       0.80818778       0.98877741       0.32996576 </v>
   <v>       0.05818778       0.48877741       0.82996576 </v>
   <v>       0.30818778       0.48877741       0.82996576 </v>
   <v>       0.55818778       0.48877741       0.82996576 </v>
   <v>       0.80818778       0.48877741       0.82996576 </v>
   <v>       0.05818778       0.98877741       0.82996576 </v>
   <v>       0.30818778       0.98877741       0.82996576 </v>
   <v>       0.55818778       0.98877741       0.82996576 </v>
   <v>       0.80818778       0.98877741       0.82996576 </v>
   <v>       0.06681221       0.23877741       0.42003418 </v>
   <v>       0.31681221       0.23877741       0.42003418 </v>
   <v>       0.56681221       0.23877741       0.42003418 </v>
   <v>       0.81681221       0.23877741       0.42003418 </v>
   <v>       0.06681221       0.73877741       0.42003418 </v>
   <v>       0.31681221       0.73877741       0.42003418 </v>
   <v>       0.56681221       0.73877741       0.42003418 </v>
   <v>       0.81681221       0.73877741       0.42003418 </v>
   <v>       0.06681221       0.23877741       0.92003418 </v>
   <v>       0.31681221       0.23877741       0.92003418 </v>
   <v>       0.56681221       0.23877741       0.92003418 </v>
   <v>       0.81681221       0.23877741       0.92003418 </v>
   <v>       0.06681221       0.73877741       0.92003418 </v>
   <v>       0.31681221       0.73877741       0.92003418 </v>
   <v>       0.56681221       0.73877741       0.92003418 </v>
   <v>       0.81681221       0.73877741       0.92003418 </v>
   <v>       0.05665091       0.18037250       0.23351950 </v>
   <v>       0.30608512       0.18037250       0.23351950 </v>
   <v>       0.55608512       0.18037250       0.23351950 </v>
   <v>       0.80608512       0.18037250       0.23351950 </v>
   <v>       0.05608512       0.68037250       0.23351950 </v>
   <v>       0.30608512       0.68037250       0.23351950 </v>
   <v>       0.55608512       0.68037250       0.23351950 </v>
   <v>       0.80608512       0.68037250       0.23351950 </v>
   <v>       0.05608512       0.18037250       0.73351950 </v>
   <v>       0.30608512       0.18037250       0.73351950 </v>
   <v>       0.55608512       0.18037250       0.73351950 </v>
   <v>       0.80608512       0.18037250       0.73351950 </v>
   <v>       0.05608512       0.68037250       0.73351950 </v>
   <v>       0.30608512       0.68037250       0.73351950 </v>
   <v>       0.55608512       0.68037250       0.73351950 </v>
   <v>       0.80608512       0.68037250       0.73351950 </v>
   <v>       0.06891487       0.43037250       0.01648043 </v>
   <v>       0.31891487       0.43037250       0.01648043 </v>
   <v>       0.56891487       0.43037250       0.01648043 </v>
   <v>       0.81891487       0.43037250       0.01648043 </v>
   <v>       0.06891487       0.93037250       0.01648043 </v>
   <v>       0.31891487       0.93037250       0.01648043 </v>
   <v>       0.56891487       0.93037250       0.01648043 </v>
   <v>       0.81891487       0.93037250       0.01648043 </v>
   <v>       0.06891487       0.43037250       0.51648043 </v>
   <v>       0.31891487       0.43037250       0.51648043 </v>
   <v>       0.56891487       0.43037250       0.51648043 </v>
   <v>       0.81891487       0.43037250       0.51648043 </v>
   <v>       0.06891487       0.93037250       0.51648043 </v>
   <v>       0.31891487       0.93037250       0.51648043 </v>
   <v>       0.56891487       0.93037250       0.51648043 </v>
   <v>       0.81891487       0.93037250       0.51648043 </v>
   <v>       0.19391487       0.31962750       0.26648043 </v>
   <v>       0.44391487       0.31962750       0.26648043 </v>
   <v>       0.69391487       0.31962750       0.26648043 </v>
   <v>       0.94391487       0.31962750       0.26648043 </v>
   <v>       0.19391487       0.81962750       0.26648043 </v>
   <v>       0.44391487       0.81962750       0.26648043 </v>
   <v>       0.69391487       0.81962750       0.26648043 </v>
   <v>       0.94391487       0.81962750       0.26648043 </v>
   <v>       0.19391487       0.31962750       0.76648043 </v>
   <v>       0.44391487       0.31962750       0.76648043 </v>
   <v>       0.69391487       0.31962750       0.76648043 </v>
   <v>       0.94391487       0.31962750       0.76648043 </v>
   <v>       0.19391487       0.81962750       0.76648043 </v>
   <v>       0.44391487       0.81962750       0.76648043 </v>
   <v>       0.69391487       0.81962750       0.76648043 </v>
   <v>       0.94391487       0.81962750       0.76648043 </v>
   <v>       0.18108512       0.06962750       0.48351950 </v>
   <v>       0.43108512       0.06962750       0.48351950 </v>
   <v>       0.68108512       0.06962750       0.48351950 </v>
   <v>       0.93108512       0.06962750       0.48351950 </v>
   <v>       0.18108512       0.56962750       0.48351950 </v>
   <v>       0.43108512       0.56962750       0.48351950 </v>
   <v>       0.68108512       0.56962750       0.48351950 </v>
   <v>       0.93108512       0.56962750       0.48351950 </v>
   <v>       0.18108512       0.06962750       0.98351950 </v>
   <v>       0.43108512       0.06962750       0.98351950 </v>
   <v>       0.68108512       0.06962750       0.98351950 </v>
   <v>       0.93108512       0.06962750       0.98351950 </v>
   <v>       0.18108512       0.56962750       0.98351950 </v>
   <v>       0.43108512       0.56962750       0.98351950 </v>
   <v>       0.68108512       0.56962750       0.98351950 </v>
   <v>       0.93108512       0.56962750       0.98351950 </v>
  </varray>
 </structure>
</modeling>
