 144 144   0   0
  0.1948916E+02  0.1401040E-08  0.1376691E-08  0.1455019E-08  0.5000000E-15
  1.000000000000000E-004
  CAR 
 unknown system                          
     13.05447715     -8.44093627  301      6.26447998      1.00000000
     -8.441  0.0000E+00  0.0000E+00
     -8.369  0.0000E+00  0.0000E+00
     -8.298  0.0000E+00  0.0000E+00
     -8.226  0.0000E+00  0.0000E+00
     -8.154  0.0000E+00  0.0000E+00
     -8.083  0.0000E+00  0.0000E+00
     -8.011  0.0000E+00  0.0000E+00
     -7.939  0.0000E+00  0.0000E+00
     -7.868  0.0000E+00  0.0000E+00
     -7.796  0.0000E+00  0.0000E+00
     -7.724  0.2989E-12  0.2141E-13
     -7.653  0.1596E-06  0.1144E-07
     -7.581  0.1593E-02  0.1141E-03
     -7.509  0.3521E+00  0.2534E-01
     -7.438  0.4313E+01  0.3344E+00
     -7.366  0.1910E+02  0.1703E+01
     -7.295  0.3786E+02  0.4416E+01
     -7.223  0.3949E+02  0.7245E+01
     -7.151  0.6431E+02  0.1185E+02
     -7.080  0.1004E+03  0.1905E+02
     -7.008  0.1263E+03  0.2810E+02
     -6.936  0.2083E+03  0.4302E+02
     -6.865  0.2226E+03  0.5897E+02
     -6.793  0.2574E+03  0.7741E+02
     -6.721  0.2074E+03  0.9228E+02
     -6.650  0.4970E+02  0.9584E+02
     -6.578  0.2241E+01  0.9600E+02
     -6.506  0.8128E-02  0.9600E+02
     -6.435  0.1034E-05  0.9600E+02
     -6.363  0.3090E-11  0.9600E+02
     -6.291  0.0000E+00  0.9600E+02
     -6.220  0.0000E+00  0.9600E+02
     -6.148  0.0000E+00  0.9600E+02
     -6.076  0.0000E+00  0.9600E+02
     -6.005  0.0000E+00  0.9600E+02
     -5.933  0.0000E+00  0.9600E+02
     -5.861  0.0000E+00  0.9600E+02
     -5.790  0.0000E+00  0.9600E+02
     -5.718  0.0000E+00  0.9600E+02
     -5.647  0.0000E+00  0.9600E+02
     -5.575  0.0000E+00  0.9600E+02
     -5.503  0.0000E+00  0.9600E+02
     -5.432  0.0000E+00  0.9600E+02
     -5.360  0.0000E+00  0.9600E+02
     -5.288  0.0000E+00  0.9600E+02
     -5.217  0.0000E+00  0.9600E+02
     -5.145  0.0000E+00  0.9600E+02
     -5.073  0.0000E+00  0.9600E+02
     -5.002  0.0000E+00  0.9600E+02
     -4.930  0.0000E+00  0.9600E+02
     -4.858  0.0000E+00  0.9600E+02
     -4.787  0.0000E+00  0.9600E+02
     -4.715  0.0000E+00  0.9600E+02
     -4.643  0.0000E+00  0.9600E+02
     -4.572  0.0000E+00  0.9600E+02
     -4.500  0.0000E+00  0.9600E+02
     -4.428  0.0000E+00  0.9600E+02
     -4.357  0.0000E+00  0.9600E+02
     -4.285  0.0000E+00  0.9600E+02
     -4.214  0.0000E+00  0.9600E+02
     -4.142  0.0000E+00  0.9600E+02
     -4.070  0.0000E+00  0.9600E+02
     -3.999  0.0000E+00  0.9600E+02
     -3.927  0.0000E+00  0.9600E+02
     -3.855  0.0000E+00  0.9600E+02
     -3.784  0.0000E+00  0.9600E+02
     -3.712  0.0000E+00  0.9600E+02
     -3.640  0.0000E+00  0.9600E+02
     -3.569  0.0000E+00  0.9600E+02
     -3.497  0.0000E+00  0.9600E+02
     -3.425  0.0000E+00  0.9600E+02
     -3.354  0.0000E+00  0.9600E+02
     -3.282  0.0000E+00  0.9600E+02
     -3.210  0.0000E+00  0.9600E+02
     -3.139  0.0000E+00  0.9600E+02
     -3.067  0.0000E+00  0.9600E+02
     -2.995  0.0000E+00  0.9600E+02
     -2.924  0.0000E+00  0.9600E+02
     -2.852  0.0000E+00  0.9600E+02
     -2.780  0.0000E+00  0.9600E+02
     -2.709  0.0000E+00  0.9600E+02
     -2.637  0.0000E+00  0.9600E+02
     -2.566  0.0000E+00  0.9600E+02
     -2.494  0.0000E+00  0.9600E+02
     -2.422  0.0000E+00  0.9600E+02
     -2.351  0.0000E+00  0.9600E+02
     -2.279  0.0000E+00  0.9600E+02
     -2.207  0.0000E+00  0.9600E+02
     -2.136  0.0000E+00  0.9600E+02
     -2.064  0.0000E+00  0.9600E+02
     -1.992  0.0000E+00  0.9600E+02
     -1.921  0.0000E+00  0.9600E+02
     -1.849  0.0000E+00  0.9600E+02
     -1.777  0.0000E+00  0.9600E+02
     -1.706  0.0000E+00  0.9600E+02
     -1.634  0.0000E+00  0.9600E+02
     -1.562  0.0000E+00  0.9600E+02
     -1.491  0.0000E+00  0.9600E+02
     -1.419  0.0000E+00  0.9600E+02
     -1.347  0.0000E+00  0.9600E+02
     -1.276  0.0000E+00  0.9600E+02
     -1.204  0.0000E+00  0.9600E+02
     -1.132  0.0000E+00  0.9600E+02
     -1.061  0.0000E+00  0.9600E+02
     -0.989  0.0000E+00  0.9600E+02
     -0.918  0.0000E+00  0.9600E+02
     -0.846  0.0000E+00  0.9600E+02
     -0.774  0.0000E+00  0.9600E+02
     -0.703  0.0000E+00  0.9600E+02
     -0.631  0.1356E-14  0.9600E+02
     -0.559  0.2811E-08  0.9600E+02
     -0.488  0.1076E-03  0.9600E+02
     -0.416  0.8320E-01  0.9601E+02
     -0.344  0.1727E+01  0.9613E+02
     -0.273  0.1889E+01  0.9627E+02
     -0.201  0.8107E+01  0.9685E+02
     -0.129  0.1540E+02  0.9795E+02
     -0.058  0.2392E+02  0.9966E+02
      0.014  0.5081E+02  0.1033E+03
      0.086  0.1013E+03  0.1106E+03
      0.157  0.1882E+03  0.1240E+03
      0.229  0.2048E+03  0.1387E+03
      0.301  0.2744E+03  0.1584E+03
      0.372  0.1946E+03  0.1723E+03
      0.444  0.1253E+03  0.1813E+03
      0.515  0.1407E+03  0.1914E+03
      0.587  0.1243E+03  0.2003E+03
      0.659  0.1649E+03  0.2121E+03
      0.730  0.2449E+03  0.2297E+03
      0.802  0.2293E+03  0.2461E+03
      0.874  0.2905E+03  0.2669E+03
      0.945  0.2864E+03  0.2874E+03
      1.017  0.1476E+03  0.2980E+03
      1.089  0.1830E+03  0.3111E+03
      1.160  0.2265E+03  0.3273E+03
      1.232  0.2289E+03  0.3437E+03
      1.304  0.2977E+03  0.3651E+03
      1.375  0.3057E+03  0.3870E+03
      1.447  0.3911E+03  0.4150E+03
      1.519  0.3558E+03  0.4405E+03
      1.590  0.3729E+03  0.4672E+03
      1.662  0.3657E+03  0.4934E+03
      1.734  0.3913E+03  0.5214E+03
      1.805  0.3727E+03  0.5482E+03
      1.877  0.3578E+03  0.5738E+03
      1.949  0.3885E+03  0.6016E+03
      2.020  0.4146E+03  0.6313E+03
      2.092  0.3788E+03  0.6585E+03
      2.163  0.3610E+03  0.6843E+03
      2.235  0.3748E+03  0.7112E+03
      2.307  0.3975E+03  0.7397E+03
      2.378  0.3388E+03  0.7640E+03
      2.450  0.2965E+03  0.7852E+03
      2.522  0.3388E+03  0.8095E+03
      2.593  0.3544E+03  0.8349E+03
      2.665  0.4085E+03  0.8641E+03
      2.737  0.3749E+03  0.8910E+03
      2.808  0.3788E+03  0.9181E+03
      2.880  0.4313E+03  0.9491E+03
      2.952  0.4982E+03  0.9848E+03
      3.023  0.4977E+03  0.1020E+04
      3.095  0.3711E+03  0.1047E+04
      3.167  0.2346E+03  0.1064E+04
      3.238  0.2055E+03  0.1079E+04
      3.310  0.1710E+03  0.1091E+04
      3.382  0.1388E+03  0.1101E+04
      3.453  0.1191E+03  0.1109E+04
      3.525  0.1571E+03  0.1121E+04
      3.596  0.1637E+03  0.1132E+04
      3.668  0.1014E+03  0.1140E+04
      3.740  0.9677E+02  0.1146E+04
      3.811  0.6546E+02  0.1151E+04
      3.883  0.7200E+02  0.1156E+04
      3.955  0.7360E+02  0.1162E+04
      4.026  0.6502E+02  0.1166E+04
      4.098  0.9240E+02  0.1173E+04
      4.170  0.1029E+03  0.1180E+04
      4.241  0.1148E+03  0.1188E+04
      4.313  0.7528E+02  0.1194E+04
      4.385  0.7287E+02  0.1199E+04
      4.456  0.6531E+02  0.1204E+04
      4.528  0.9192E+02  0.1210E+04
      4.600  0.9338E+02  0.1217E+04
      4.671  0.1023E+03  0.1224E+04
      4.743  0.1391E+03  0.1234E+04
      4.815  0.1384E+03  0.1244E+04
      4.886  0.7317E+02  0.1249E+04
      4.958  0.5347E+02  0.1253E+04
      5.030  0.5502E+02  0.1257E+04
      5.101  0.8656E+02  0.1263E+04
      5.173  0.1439E+03  0.1274E+04
      5.244  0.1096E+03  0.1282E+04
      5.316  0.6330E+02  0.1286E+04
      5.388  0.5921E+02  0.1290E+04
      5.459  0.6937E+02  0.1295E+04
      5.531  0.7235E+02  0.1301E+04
      5.603  0.7653E+02  0.1306E+04
      5.674  0.1099E+03  0.1314E+04
      5.746  0.1325E+03  0.1323E+04
      5.818  0.7308E+02  0.1329E+04
      5.889  0.6443E+02  0.1333E+04
      5.961  0.5870E+02  0.1337E+04
      6.033  0.3063E+02  0.1340E+04
      6.104  0.1899E+02  0.1341E+04
      6.176  0.2153E+02  0.1343E+04
      6.248  0.1693E+02  0.1344E+04
      6.319  0.9106E+01  0.1344E+04
      6.391  0.9912E+00  0.1344E+04
      6.463  0.1144E+00  0.1345E+04
      6.534  0.1864E+01  0.1345E+04
      6.606  0.1797E+01  0.1345E+04
      6.678  0.5245E+01  0.1345E+04
      6.749  0.2274E+02  0.1347E+04
      6.821  0.2612E+02  0.1349E+04
      6.892  0.1133E+02  0.1349E+04
      6.964  0.6312E+01  0.1350E+04
      7.036  0.8974E+01  0.1351E+04
      7.107  0.4668E+01  0.1351E+04
      7.179  0.2130E+02  0.1352E+04
      7.251  0.2392E+02  0.1354E+04
      7.322  0.2813E+02  0.1356E+04
      7.394  0.3120E+02  0.1358E+04
      7.466  0.3041E+02  0.1361E+04
      7.537  0.6002E+02  0.1365E+04
      7.609  0.7208E+02  0.1370E+04
      7.681  0.2685E+02  0.1372E+04
      7.752  0.5423E+02  0.1376E+04
      7.824  0.6957E+02  0.1381E+04
      7.896  0.7329E+02  0.1386E+04
      7.967  0.7531E+02  0.1391E+04
      8.039  0.6656E+02  0.1396E+04
      8.111  0.3460E+02  0.1399E+04
      8.182  0.1884E+02  0.1400E+04
      8.254  0.8458E+01  0.1401E+04
      8.325  0.1009E+02  0.1401E+04
      8.397  0.5052E+02  0.1405E+04
      8.469  0.3456E+02  0.1407E+04
      8.540  0.3165E+02  0.1410E+04
      8.612  0.9420E+02  0.1417E+04
      8.684  0.1052E+03  0.1424E+04
      8.755  0.5881E+02  0.1428E+04
      8.827  0.5163E+02  0.1432E+04
      8.899  0.3338E+02  0.1434E+04
      8.970  0.4581E+02  0.1438E+04
      9.042  0.3052E+02  0.1440E+04
      9.114  0.2230E+02  0.1441E+04
      9.185  0.1039E+02  0.1442E+04
      9.257  0.1641E+02  0.1443E+04
      9.329  0.5321E+02  0.1447E+04
      9.400  0.4980E+02  0.1451E+04
      9.472  0.5432E+02  0.1455E+04
      9.544  0.3830E+02  0.1457E+04
      9.615  0.5065E+02  0.1461E+04
      9.687  0.5004E+02  0.1465E+04
      9.759  0.4791E+02  0.1468E+04
      9.830  0.5212E+02  0.1472E+04
      9.902  0.7643E+02  0.1477E+04
      9.973  0.5563E+02  0.1481E+04
     10.045  0.1077E+03  0.1489E+04
     10.117  0.1194E+03  0.1497E+04
     10.188  0.4374E+02  0.1501E+04
     10.260  0.2830E+02  0.1503E+04
     10.332  0.4882E+02  0.1506E+04
     10.403  0.5574E+02  0.1510E+04
     10.475  0.9024E+02  0.1517E+04
     10.547  0.1094E+03  0.1524E+04
     10.618  0.1122E+03  0.1532E+04
     10.690  0.9461E+02  0.1539E+04
     10.762  0.7804E+02  0.1545E+04
     10.833  0.1072E+03  0.1553E+04
     10.905  0.9043E+02  0.1559E+04
     10.977  0.6520E+02  0.1564E+04
     11.048  0.3524E+02  0.1566E+04
     11.120  0.5490E+02  0.1570E+04
     11.192  0.5220E+02  0.1574E+04
     11.263  0.4450E+02  0.1577E+04
     11.335  0.8298E+02  0.1583E+04
     11.406  0.5381E+02  0.1587E+04
     11.478  0.5452E+02  0.1591E+04
     11.550  0.8871E+02  0.1597E+04
     11.621  0.6848E+02  0.1602E+04
     11.693  0.4665E+02  0.1605E+04
     11.765  0.1238E+02  0.1606E+04
     11.836  0.1459E+02  0.1607E+04
     11.908  0.3611E+02  0.1610E+04
     11.980  0.2128E+02  0.1611E+04
     12.051  0.3049E+01  0.1612E+04
     12.123  0.4546E+01  0.1612E+04
     12.195  0.5693E+00  0.1612E+04
     12.266  0.2292E-02  0.1612E+04
     12.338  0.2052E-06  0.1612E+04
     12.410  0.3541E-12  0.1612E+04
     12.481  0.0000E+00  0.1612E+04
     12.553  0.0000E+00  0.1612E+04
     12.625  0.0000E+00  0.1612E+04
     12.696  0.0000E+00  0.1612E+04
     12.768  0.0000E+00  0.1612E+04
     12.840  0.0000E+00  0.1612E+04
     12.911  0.0000E+00  0.1612E+04
     12.983  0.0000E+00  0.1612E+04
     13.054  0.0000E+00  0.1612E+04
