<?xml version="1.0" encoding="ISO-8859-1"?>
<modeling>
 <generator>
  <i name="program" type="string">vasp </i>
  <i name="version" type="string">5.4.4.18Apr17-6-g9f103f2a35  </i>
  <i name="subversion" type="string">(build Jul 30 2020 14:31:59) complex            parallel </i>
  <i name="platform" type="string">LinuxIFC </i>
  <i name="date" type="string">2021 02 04 </i>
  <i name="time" type="string">07:33:23 </i>
 </generator>
 <incar>
  <i type="string" name="PREC">accurate</i>
  <i type="string" name="ALGO"> normal</i>
  <i type="logical" name="ADDGRID"> T  </i>
  <i type="int" name="ISPIN">     1</i>
  <i type="int" name="NELM">   200</i>
  <i type="int" name="NELMIN">     8</i>
  <i name="EDIFF">      0.00000001</i>
  <i type="int" name="ISIF">     3</i>
  <i type="int" name="ISYM">     0</i>
  <i name="ENCUT">    650.00000000</i>
  <i type="logical" name="LREAL"> F  </i>
  <i type="int" name="ISMEAR">     0</i>
  <i name="SIGMA">      0.05000000</i>
  <i type="logical" name="LWAVE"> F  </i>
  <i type="logical" name="LASPH"> T  </i>
  <v type="int" name="KPOINT_BSE">    -1     0     0     0</v>
  <i type="int" name="NELM">   200</i>
  <i type="string" name="GGA"> ps</i>
  <i type="logical" name="LASPH"> T  </i>
 </incar>
 <structure name="primitive_cell" >
  <crystal>
   <varray name="basis" >
    <v>      14.01039598       0.00139138       0.00000000 </v>
    <v>      -0.00150196      13.76691092       0.00000000 </v>
    <v>       0.00000000       0.00000000      14.55019386 </v>
   </varray>
   <i name="volume">   2806.43958022 </i>
   <varray name="rec_basis" >
    <v>       0.07137557       0.00000779       0.00000000 </v>
    <v>      -0.00000721       0.07263794       0.00000000 </v>
    <v>       0.00000000       0.00000000       0.06872761 </v>
   </varray>
  </crystal>
  <varray name="positions" >
   <v>       0.42987898       0.17167077       0.33247735 </v>
   <v>      -0.50000000       0.00000000       0.38812698 </v>
   <v>       0.25000000       0.25000000       0.33409665 </v>
   <v>      -0.50000000       0.25000000       0.16743769 </v>
   <v>      -0.42987656       0.07832506       0.22308000 </v>
   <v>      -0.50000000       0.25000000      -0.49922898 </v>
   <v>       0.32012224       0.17167631       0.49914189 </v>
   <v>       0.32012224       0.17167631       0.16580856 </v>
   <v>      -0.42987898       0.32832923       0.33247735 </v>
   <v>       0.42987656      -0.07832506       0.22308000 </v>
   <v>       0.42987656       0.42167494       0.22308000 </v>
   <v>       0.25000000       0.00000000       0.22145206 </v>
   <v>       0.17987948       0.07832633       0.38974408 </v>
   <v>      -0.32012052       0.07832633       0.38974408 </v>
   <v>       0.32012052      -0.07832633       0.38974408 </v>
   <v>       0.32012052       0.42167367       0.38974408 </v>
   <v>      -0.42987656       0.07832506      -0.44358667 </v>
   <v>      -0.25000000       0.25000000       0.33409665 </v>
   <v>      -0.50000000      -0.50000000       0.38812698 </v>
   <v>       0.25000000       0.00000000      -0.44521461 </v>
   <v>       0.42987656      -0.07832506      -0.44358667 </v>
   <v>       0.42987656       0.42167494      -0.44358667 </v>
   <v>      -0.32012224       0.32832369       0.49914189 </v>
   <v>      -0.32012224       0.32832369       0.16580856 </v>
   <v>       0.17987776       0.32832369       0.49914189 </v>
   <v>       0.17987776       0.32832369       0.16580856 </v>
   <v>      -0.50000000       0.00000000       0.05479365 </v>
   <v>       0.42987898       0.17167077      -0.33418932 </v>
   <v>       0.42987898       0.17167077      -0.00085599 </v>
   <v>      -0.42987898      -0.17167077       0.33247735 </v>
   <v>      -0.25000000       0.00000000       0.22145206 </v>
   <v>       0.25000000      -0.50000000       0.22145206 </v>
   <v>       0.07012344       0.07832506       0.22308000 </v>
   <v>       0.17987948       0.07832633       0.05641075 </v>
   <v>      -0.32012052       0.07832633       0.05641075 </v>
   <v>       0.07012102       0.32832923       0.33247735 </v>
   <v>       0.32012052      -0.07832633       0.05641075 </v>
   <v>       0.32012052       0.42167367       0.05641075 </v>
   <v>       0.25049507       0.25000000       0.00125839 </v>
   <v>       0.25000000       0.25000000      -0.33257001 </v>
   <v>      -0.42987898       0.32832923      -0.33418932 </v>
   <v>      -0.42987898       0.32832923      -0.00085599 </v>
   <v>      -0.17987776       0.17167631       0.49914189 </v>
   <v>      -0.17987776       0.17167631       0.16580856 </v>
   <v>      -0.25000000       0.00000000      -0.44521461 </v>
   <v>       0.25000000      -0.50000000      -0.44521461 </v>
   <v>       0.07012344       0.07832506      -0.44358667 </v>
   <v>      -0.50000000      -0.50000000       0.05479365 </v>
   <v>      -0.42987656      -0.42167494       0.22308000 </v>
   <v>      -0.50000000       0.00000000      -0.27853968 </v>
   <v>       0.25000000      -0.25000000       0.33409665 </v>
   <v>      -0.50000000      -0.25000000       0.16743769 </v>
   <v>       0.17987776      -0.17167631       0.49914189 </v>
   <v>       0.17987776      -0.17167631       0.16580856 </v>
   <v>      -0.32012224      -0.17167631       0.49914189 </v>
   <v>      -0.32012224      -0.17167631       0.16580856 </v>
   <v>      -0.50000000      -0.25000000      -0.49922898 </v>
   <v>      -0.17987948       0.42167367       0.38974408 </v>
   <v>      -0.17987948      -0.07832633       0.38974408 </v>
   <v>       0.00000000       0.00000000       0.38812698 </v>
   <v>      -0.25000000      -0.50000000       0.22145206 </v>
   <v>       0.00000000       0.25000000       0.16743769 </v>
   <v>       0.00000000       0.25000000      -0.49922898 </v>
   <v>      -0.32012052      -0.42167367       0.38974408 </v>
   <v>       0.17987948      -0.42167367       0.38974408 </v>
   <v>      -0.25000000       0.25000000       0.00076332 </v>
   <v>      -0.25000000       0.25000000      -0.33257001 </v>
   <v>      -0.42987656      -0.42167494      -0.44358667 </v>
   <v>       0.17987948       0.07832633      -0.27692259 </v>
   <v>      -0.32012052       0.07832633      -0.27692259 </v>
   <v>       0.32012052      -0.07832633      -0.27692259 </v>
   <v>       0.32012052       0.42167367      -0.27692259 </v>
   <v>      -0.42987656       0.07832506      -0.11025334 </v>
   <v>       0.42987898      -0.32832923       0.33247735 </v>
   <v>       0.07012102      -0.17167077       0.33247735 </v>
   <v>      -0.07012102       0.17167077       0.33247735 </v>
   <v>      -0.42987898      -0.17167077      -0.33418932 </v>
   <v>      -0.42987898      -0.17167077      -0.00085599 </v>
   <v>      -0.25000000      -0.50000000      -0.44521461 </v>
   <v>       0.42987656      -0.07832506      -0.11025334 </v>
   <v>       0.42987656       0.42167494      -0.11025334 </v>
   <v>      -0.50000000      -0.50000000      -0.27853968 </v>
   <v>       0.07012102       0.32832923      -0.33418932 </v>
   <v>       0.07012102       0.32832923      -0.00085599 </v>
   <v>       0.25000000       0.00000000      -0.11188127 </v>
   <v>      -0.25000000      -0.25000000       0.33409665 </v>
   <v>      -0.50000000       0.25000000      -0.16589565 </v>
   <v>       0.32012224       0.17167631      -0.16752478 </v>
   <v>       0.32012224      -0.32832369       0.49914189 </v>
   <v>       0.32012224      -0.32832369       0.16580856 </v>
   <v>       0.00000000      -0.50000000       0.38812698 </v>
   <v>      -0.17987948       0.42167367       0.05641075 </v>
   <v>      -0.17987948      -0.07832633       0.05641075 </v>
   <v>       0.00000000       0.00000000       0.05479365 </v>
   <v>       0.07012344      -0.42167494       0.22308000 </v>
   <v>      -0.32012052      -0.42167367       0.05641075 </v>
   <v>       0.17987948      -0.42167367       0.05641075 </v>
   <v>       0.25000000      -0.25000000       0.00076332 </v>
   <v>      -0.07012344       0.42167494       0.22308000 </v>
   <v>      -0.07012344      -0.07832506       0.22308000 </v>
   <v>       0.25000000      -0.25000000      -0.33257001 </v>
   <v>       0.07012344      -0.42167494      -0.44358667 </v>
   <v>      -0.25000000       0.00000000      -0.11188127 </v>
   <v>       0.07012344       0.07832506      -0.11025334 </v>
   <v>       0.25000000      -0.50000000      -0.11188127 </v>
   <v>      -0.32012224       0.32832369      -0.16752478 </v>
   <v>       0.17987776       0.32832369      -0.16752478 </v>
   <v>       0.42987898      -0.32832923      -0.33418932 </v>
   <v>       0.42987898      -0.32832923      -0.00085599 </v>
   <v>       0.07012102      -0.17167077      -0.33418932 </v>
   <v>       0.07012102      -0.17167077      -0.00085599 </v>
   <v>      -0.07012344       0.42167494      -0.44358667 </v>
   <v>      -0.07012344      -0.07832506      -0.44358667 </v>
   <v>      -0.07012102       0.17167077      -0.33418932 </v>
   <v>      -0.07012102       0.17167077      -0.00085599 </v>
   <v>       0.00000000      -0.50000000       0.05479365 </v>
   <v>       0.00000000       0.00000000      -0.27853968 </v>
   <v>      -0.17987948       0.42167367      -0.27692259 </v>
   <v>      -0.17987948      -0.07832633      -0.27692259 </v>
   <v>       0.00000000      -0.25000000       0.16743769 </v>
   <v>      -0.32012052      -0.42167367      -0.27692259 </v>
   <v>       0.17987948      -0.42167367      -0.27692259 </v>
   <v>       0.00000000      -0.25000000      -0.49922898 </v>
   <v>      -0.42987656      -0.42167494      -0.11025334 </v>
   <v>      -0.25000000      -0.25000000       0.00076332 </v>
   <v>      -0.25000000      -0.25000000      -0.33257001 </v>
   <v>      -0.25000000      -0.50000000      -0.11188127 </v>
   <v>      -0.17987776       0.17167631      -0.16752478 </v>
   <v>      -0.17987776      -0.32832369       0.49914189 </v>
   <v>      -0.17987776      -0.32832369       0.16580856 </v>
   <v>      -0.50000000      -0.25000000      -0.16589565 </v>
   <v>       0.17987776      -0.17167631      -0.16752478 </v>
   <v>      -0.32012224      -0.17167631      -0.16752478 </v>
   <v>       0.00000000      -0.50000000      -0.27853968 </v>
   <v>       0.00000000       0.25000000      -0.16589565 </v>
   <v>      -0.07012102      -0.32832923       0.33247735 </v>
   <v>       0.07012344      -0.42167494      -0.11025334 </v>
   <v>      -0.07012344       0.42167494      -0.11025334 </v>
   <v>      -0.07012344      -0.07832506      -0.11025334 </v>
   <v>       0.32012224      -0.32832369      -0.16752478 </v>
   <v>      -0.07012102      -0.32832923      -0.33418932 </v>
   <v>      -0.07012102      -0.32832923      -0.00085599 </v>
   <v>       0.00000000      -0.25000000      -0.16589565 </v>
   <v>      -0.17987776      -0.32832369      -0.16752478 </v>
  </varray>
 </structure>
 <varray name="primitive_index" >
  <v type="int" >        1 </v>
  <v type="int" >      102 </v>
  <v type="int" >      137 </v>
  <v type="int" >      122 </v>
  <v type="int" >       86 </v>
  <v type="int" >      126 </v>
  <v type="int" >       65 </v>
  <v type="int" >       61 </v>
  <v type="int" >       14 </v>
  <v type="int" >       75 </v>
  <v type="int" >       73 </v>
  <v type="int" >      109 </v>
  <v type="int" >       41 </v>
  <v type="int" >       42 </v>
  <v type="int" >       31 </v>
  <v type="int" >       29 </v>
  <v type="int" >       90 </v>
  <v type="int" >      138 </v>
  <v type="int" >      104 </v>
  <v type="int" >      113 </v>
  <v type="int" >       79 </v>
  <v type="int" >       77 </v>
  <v type="int" >       54 </v>
  <v type="int" >       50 </v>
  <v type="int" >       53 </v>
  <v type="int" >       49 </v>
  <v type="int" >       98 </v>
  <v type="int" >        5 </v>
  <v type="int" >        9 </v>
  <v type="int" >       16 </v>
  <v type="int" >      110 </v>
  <v type="int" >      111 </v>
  <v type="int" >       85 </v>
  <v type="int" >       37 </v>
  <v type="int" >       38 </v>
  <v type="int" >       13 </v>
  <v type="int" >       27 </v>
  <v type="int" >       25 </v>
  <v type="int" >      133 </v>
  <v type="int" >      141 </v>
  <v type="int" >       18 </v>
  <v type="int" >       22 </v>
  <v type="int" >       66 </v>
  <v type="int" >       62 </v>
  <v type="int" >      114 </v>
  <v type="int" >      115 </v>
  <v type="int" >       89 </v>
  <v type="int" >      100 </v>
  <v type="int" >       88 </v>
  <v type="int" >      106 </v>
  <v type="int" >      139 </v>
  <v type="int" >      124 </v>
  <v type="int" >       55 </v>
  <v type="int" >       51 </v>
  <v type="int" >       56 </v>
  <v type="int" >       52 </v>
  <v type="int" >      128 </v>
  <v type="int" >       30 </v>
  <v type="int" >       32 </v>
  <v type="int" >      101 </v>
  <v type="int" >      112 </v>
  <v type="int" >      121 </v>
  <v type="int" >      125 </v>
  <v type="int" >       44 </v>
  <v type="int" >       43 </v>
  <v type="int" >      134 </v>
  <v type="int" >      142 </v>
  <v type="int" >       92 </v>
  <v type="int" >       45 </v>
  <v type="int" >       46 </v>
  <v type="int" >       35 </v>
  <v type="int" >       33 </v>
  <v type="int" >       94 </v>
  <v type="int" >        3 </v>
  <v type="int" >       15 </v>
  <v type="int" >        2 </v>
  <v type="int" >       20 </v>
  <v type="int" >       24 </v>
  <v type="int" >      116 </v>
  <v type="int" >       83 </v>
  <v type="int" >       81 </v>
  <v type="int" >      108 </v>
  <v type="int" >       17 </v>
  <v type="int" >       21 </v>
  <v type="int" >      117 </v>
  <v type="int" >      140 </v>
  <v type="int" >      130 </v>
  <v type="int" >       69 </v>
  <v type="int" >       67 </v>
  <v type="int" >       63 </v>
  <v type="int" >      103 </v>
  <v type="int" >       26 </v>
  <v type="int" >       28 </v>
  <v type="int" >       97 </v>
  <v type="int" >       87 </v>
  <v type="int" >       40 </v>
  <v type="int" >       39 </v>
  <v type="int" >      135 </v>
  <v type="int" >       74 </v>
  <v type="int" >       76 </v>
  <v type="int" >      143 </v>
  <v type="int" >       91 </v>
  <v type="int" >      118 </v>
  <v type="int" >       93 </v>
  <v type="int" >      119 </v>
  <v type="int" >       58 </v>
  <v type="int" >       57 </v>
  <v type="int" >        7 </v>
  <v type="int" >       11 </v>
  <v type="int" >       19 </v>
  <v type="int" >       23 </v>
  <v type="int" >       78 </v>
  <v type="int" >       80 </v>
  <v type="int" >        6 </v>
  <v type="int" >       10 </v>
  <v type="int" >       99 </v>
  <v type="int" >      105 </v>
  <v type="int" >       34 </v>
  <v type="int" >       36 </v>
  <v type="int" >      123 </v>
  <v type="int" >       48 </v>
  <v type="int" >       47 </v>
  <v type="int" >      127 </v>
  <v type="int" >       96 </v>
  <v type="int" >      136 </v>
  <v type="int" >      144 </v>
  <v type="int" >      120 </v>
  <v type="int" >       70 </v>
  <v type="int" >       68 </v>
  <v type="int" >       64 </v>
  <v type="int" >      132 </v>
  <v type="int" >       59 </v>
  <v type="int" >       60 </v>
  <v type="int" >      107 </v>
  <v type="int" >      129 </v>
  <v type="int" >        4 </v>
  <v type="int" >       95 </v>
  <v type="int" >       82 </v>
  <v type="int" >       84 </v>
  <v type="int" >       71 </v>
  <v type="int" >        8 </v>
  <v type="int" >       12 </v>
  <v type="int" >      131 </v>
  <v type="int" >       72 </v>
 </varray>
 <kpoints>
  <generation param="Gamma">
   <v type="int" name="divisions">       2        2        2 </v>
   <v name="usershift">      0.00000000       0.00000000       0.00000000 </v>
   <v name="genvec1">      0.50000000       0.00000000       0.00000000 </v>
   <v name="genvec2">      0.00000000       0.50000000       0.00000000 </v>
   <v name="genvec3">      0.00000000       0.00000000       0.50000000 </v>
   <v name="shift">      0.00000000       0.00000000       0.00000000 </v>
  </generation>
  <varray name="kpointlist" >
   <v>       0.00000000       0.00000000       0.00000000 </v>
   <v>       0.50000000      -0.00000000       0.00000000 </v>
   <v>       0.00000000       0.50000000       0.00000000 </v>
   <v>       0.50000000       0.50000000       0.00000000 </v>
   <v>       0.00000000       0.00000000       0.50000000 </v>
   <v>       0.50000000      -0.00000000       0.50000000 </v>
   <v>       0.00000000       0.50000000       0.50000000 </v>
   <v>       0.50000000       0.50000000       0.50000000 </v>
  </varray>
  <varray name="weights" >
   <v>       0.12500000 </v>
   <v>       0.12500000 </v>
   <v>       0.12500000 </v>
   <v>       0.12500000 </v>
   <v>       0.12500000 </v>
   <v>       0.12500000 </v>
   <v>       0.12500000 </v>
   <v>       0.12500000 </v>
  </varray>
 </kpoints>
 <parameters>
  <separator name="general" >
   <i type="string" name="SYSTEM">unknown system</i>
   <i type="logical" name="LCOMPAT"> F  </i>
  </separator>
  <separator name="electronic" >
   <i type="string" name="PREC">accura</i>
   <i name="ENMAX">    650.00000000</i>
   <i name="ENAUG">    446.84200000</i>
   <i name="EDIFF">      0.00000001</i>
   <i type="int" name="IALGO">    38</i>
   <i type="int" name="IWAVPR">    10</i>
   <i type="int" name="NBANDS">   806</i>
   <i name="NELECT">   1344.00000000</i>
   <i type="int" name="TURBO">     0</i>
   <i type="int" name="IRESTART">     0</i>
   <i type="int" name="NREBOOT">     0</i>
   <i type="int" name="NMIN">     0</i>
   <i name="EREF">      0.00000000</i>
   <separator name="electronic smearing" >
    <i type="int" name="ISMEAR">     0</i>
    <i name="SIGMA">      0.05000000</i>
    <i name="KSPACING">      0.50000000</i>
    <i type="logical" name="KGAMMA"> T  </i>
   </separator>
   <separator name="electronic projectors" >
    <i type="logical" name="LREAL"> F  </i>
    <v name="ROPT">      0.00000000      0.00000000</v>
    <i type="int" name="LMAXPAW">  -100</i>
    <i type="int" name="LMAXMIX">     2</i>
    <i type="logical" name="NLSPLINE"> F  </i>
   </separator>
   <separator name="electronic startup" >
    <i type="int" name="ISTART">     0</i>
    <i type="int" name="ICHARG">     2</i>
    <i type="int" name="INIWAV">     1</i>
   </separator>
   <separator name="electronic spin" >
    <i type="int" name="ISPIN">     1</i>
    <i type="logical" name="LNONCOLLINEAR"> F  </i>
    <v name="MAGMOM">      1.00000000      1.00000000      1.00000000      1.00000000      1.00000000      1.00000000      1.00000000      1.00000000      1.00000000      1.00000000      1.00000000      1.00000000      1.00000000      1.00000000      1.00000000      1.00000000      1.00000000      1.00000000      1.00000000      1.00000000
      1.00000000      1.00000000      1.00000000      1.00000000      1.00000000      1.00000000      1.00000000      1.00000000      1.00000000      1.00000000      1.00000000      1.00000000      1.00000000      1.00000000      1.00000000      1.00000000      1.00000000      1.00000000      1.00000000      1.00000000
      1.00000000      1.00000000      1.00000000      1.00000000      1.00000000      1.00000000      1.00000000      1.00000000      1.00000000      1.00000000      1.00000000      1.00000000      1.00000000      1.00000000      1.00000000      1.00000000      1.00000000      1.00000000      1.00000000      1.00000000
      1.00000000      1.00000000      1.00000000      1.00000000      1.00000000      1.00000000      1.00000000      1.00000000      1.00000000      1.00000000      1.00000000      1.00000000      1.00000000      1.00000000      1.00000000      1.00000000      1.00000000      1.00000000      1.00000000      1.00000000
      1.00000000      1.00000000      1.00000000      1.00000000      1.00000000      1.00000000      1.00000000      1.00000000      1.00000000      1.00000000      1.00000000      1.00000000      1.00000000      1.00000000      1.00000000      1.00000000      1.00000000      1.00000000      1.00000000      1.00000000
      1.00000000      1.00000000      1.00000000      1.00000000      1.00000000      1.00000000      1.00000000      1.00000000      1.00000000      1.00000000      1.00000000      1.00000000      1.00000000      1.00000000      1.00000000      1.00000000      1.00000000      1.00000000      1.00000000      1.00000000
      1.00000000      1.00000000      1.00000000      1.00000000      1.00000000      1.00000000      1.00000000      1.00000000      1.00000000      1.00000000      1.00000000      1.00000000      1.00000000      1.00000000      1.00000000      1.00000000      1.00000000      1.00000000      1.00000000      1.00000000
      1.00000000      1.00000000      1.00000000      1.00000000</v>
    <i name="NUPDOWN">     -1.00000000</i>
    <i type="logical" name="LSORBIT"> F  </i>
    <v name="SAXIS">      0.00000000      0.00000000      1.00000000</v>
    <i type="logical" name="LSPIRAL"> F  </i>
    <v name="QSPIRAL">      0.00000000      0.00000000      0.00000000</v>
    <i type="logical" name="LZEROZ"> F  </i>
   </separator>
   <separator name="electronic exchange-correlation" >
    <i type="logical" name="LASPH"> T  </i>
    <i type="logical" name="LMETAGGA"> F  </i>
   </separator>
   <separator name="electronic convergence" >
    <i type="int" name="NELM">   200</i>
    <i type="int" name="NELMDL">    -5</i>
    <i type="int" name="NELMIN">     8</i>
    <i name="ENINI">    650.00000000</i>
    <separator name="electronic convergence detail" >
     <i type="logical" name="LDIAG"> T  </i>
     <i type="logical" name="LSUBROT"> F  </i>
     <i name="WEIMIN">      0.00000000</i>
     <i name="EBREAK">      0.00000000</i>
     <i name="DEPER">      0.30000000</i>
     <i type="int" name="NRMM">     4</i>
     <i name="TIME">      0.40000000</i>
    </separator>
   </separator>
   <separator name="electronic mixer" >
    <i name="AMIX">      0.40000000</i>
    <i name="BMIX">      1.00000000</i>
    <i name="AMIN">      0.10000000</i>
    <i name="AMIX_MAG">      1.60000000</i>
    <i name="BMIX_MAG">      1.00000000</i>
    <separator name="electronic mixer details" >
     <i type="int" name="IMIX">     4</i>
     <i type="logical" name="MIXFIRST"> F  </i>
     <i type="int" name="MAXMIX">   -45</i>
     <i name="WC">    100.00000000</i>
     <i type="int" name="INIMIX">     1</i>
     <i type="int" name="MIXPRE">     1</i>
     <i type="int" name="MREMOVE">     5</i>
    </separator>
   </separator>
   <separator name="electronic dipolcorrection" >
    <i type="logical" name="LDIPOL"> F  </i>
    <i type="logical" name="LMONO"> F  </i>
    <i type="int" name="IDIPOL">     0</i>
    <i name="EPSILON">      1.00000000</i>
    <v name="DIPOL">   -100.00000000   -100.00000000   -100.00000000</v>
    <i name="EFIELD">      0.00000000</i>
   </separator>
  </separator>
  <separator name="grids" >
   <i type="int" name="NGX">   120</i>
   <i type="int" name="NGY">   120</i>
   <i type="int" name="NGZ">   126</i>
   <i type="int" name="NGXF">   240</i>
   <i type="int" name="NGYF">   240</i>
   <i type="int" name="NGZF">   252</i>
   <i type="logical" name="ADDGRID"> T  </i>
  </separator>
  <separator name="ionic" >
   <i type="int" name="NSW">     0</i>
   <i type="int" name="IBRION">    -1</i>
   <i type="int" name="MDALGO">     0</i>
   <i type="int" name="ISIF">     3</i>
   <i name="PSTRESS">      0.00000000</i>
   <i name="EDIFFG">      0.00000010</i>
   <i type="int" name="NFREE">     0</i>
   <i name="POTIM">      0.50000000</i>
   <i name="SMASS">     -3.00000000</i>
   <i name="SCALEE">      1.00000000</i>
  </separator>
  <separator name="ionic md" >
   <i name="TEBEG">      0.00010000</i>
   <i name="TEEND">      0.00010000</i>
   <i type="int" name="NBLOCK">     1</i>
   <i type="int" name="KBLOCK">     1</i>
   <i type="int" name="NPACO">   256</i>
   <i name="APACO">     16.00000000</i>
  </separator>
  <separator name="symmetry" >
   <i type="int" name="ISYM">     0</i>
   <i name="SYMPREC">      0.00001000</i>
  </separator>
  <separator name="dos" >
   <i type="int" name="LORBIT">     0</i>
   <v name="RWIGS">     -1.00000000     -1.00000000</v>
   <i type="int" name="NEDOS">   301</i>
   <i name="EMIN">     10.00000000</i>
   <i name="EMAX">    -10.00000000</i>
   <i name="EFERMI">      0.00000000</i>
  </separator>
  <separator name="writing" >
   <i type="int" name="NWRITE">     2</i>
   <i type="logical" name="LWAVE"> F  </i>
   <i type="logical" name="LDOWNSAMPLE"> F  </i>
   <i type="logical" name="LCHARG"> T  </i>
   <i type="logical" name="LPARD"> F  </i>
   <i type="logical" name="LVTOT"> F  </i>
   <i type="logical" name="LVHAR"> F  </i>
   <i type="logical" name="LELF"> F  </i>
   <i type="logical" name="LOPTICS"> F  </i>
   <v name="STM">      0.00000000      0.00000000      0.00000000      0.00000000      0.00000000      0.00000000      0.00000000</v>
  </separator>
  <separator name="performance" >
   <i type="int" name="NPAR">     1</i>
   <i type="int" name="NSIM">     4</i>
   <i type="int" name="NBLK">    -1</i>
   <i type="logical" name="LPLANE"> T  </i>
   <i type="logical" name="LSCALAPACK"> T  </i>
   <i type="logical" name="LSCAAWARE"> F  </i>
   <i type="logical" name="LSCALU"> F  </i>
   <i type="logical" name="LASYNC"> F  </i>
   <i type="logical" name="LORBITALREAL"> F  </i>
  </separator>
  <separator name="miscellaneous" >
   <i type="int" name="IDIOT">     3</i>
   <i type="int" name="ISPECIAL">     0</i>
   <i type="logical" name="LMUSIC"> F  </i>
   <v name="POMASS">    107.86800000     78.96000000</v>
   <v name="DARWINR">      0.00000000      0.00000000</v>
   <v name="DARWINV">      1.00000000      1.00000000</v>
   <i type="logical" name="LCORR"> T  </i>
  </separator>
  <i type="logical" name="GGA_COMPAT"> T  </i>
  <i type="logical" name="LBERRY"> F  </i>
  <i type="int" name="ICORELEVEL">     0</i>
  <i type="logical" name="LDAU"> F  </i>
  <i type="int" name="I_CONSTRAINED_M">     0</i>
  <separator name="electronic exchange-correlation" >
   <i type="string" name="GGA">PS</i>
   <i type="int" name="VOSKOWN">     0</i>
   <i type="logical" name="LHFCALC"> F  </i>
   <i type="string" name="PRECFOCK"></i>
   <i type="logical" name="LSYMGRAD"> F  </i>
   <i type="logical" name="LHFONE"> F  </i>
   <i type="logical" name="LRHFCALC"> F  </i>
   <i type="logical" name="LTHOMAS"> F  </i>
   <i type="logical" name="LMODELHF"> F  </i>
   <i name="ENCUT4O">     -1.00000000</i>
   <i type="int" name="EXXOEP">     0</i>
   <i type="int" name="FOURORBIT">     0</i>
   <i name="AEXX">      0.00000000</i>
   <i name="HFALPHA">      0.00000000</i>
   <i name="MCALPHA">      0.00000000</i>
   <i name="ALDAX">      1.00000000</i>
   <i name="AGGAX">      1.00000000</i>
   <i name="ALDAC">      1.00000000</i>
   <i name="AGGAC">      1.00000000</i>
   <i type="int" name="NKREDX">     1</i>
   <i type="int" name="NKREDY">     1</i>
   <i type="int" name="NKREDZ">     1</i>
   <i type="logical" name="SHIFTRED"> F  </i>
   <i type="logical" name="ODDONLY"> F  </i>
   <i type="logical" name="EVENONLY"> F  </i>
   <i type="int" name="LMAXFOCK">     0</i>
   <i type="int" name="NMAXFOCKAE">     0</i>
   <i type="logical" name="LFOCKAEDFT"> F  </i>
   <i name="HFSCREEN">      0.00000000</i>
   <i name="HFSCREENC">      0.00000000</i>
   <i type="int" name="NBANDSGWLOW">     0</i>
  </separator>
  <separator name="vdW DFT" >
   <i type="logical" name="LUSE_VDW"> F  </i>
   <i name="Zab_VDW">     -0.84910000</i>
   <i name="PARAM1">      0.12340000</i>
   <i name="PARAM2">      1.00000000</i>
   <i name="PARAM3">      0.00000000</i>
  </separator>
  <separator name="model GW" >
   <i type="int" name="MODEL_GW">     0</i>
   <i name="MODEL_EPS0">     11.69349825</i>
   <i name="MODEL_ALPHA">      1.00000000</i>
  </separator>
  <separator name="linear response parameters" >
   <i type="logical" name="LEPSILON"> F  </i>
   <i type="logical" name="LRPA"> F  </i>
   <i type="logical" name="LNABLA"> F  </i>
   <i type="logical" name="LVEL"> F  </i>
   <i type="int" name="KINTER">     0</i>
   <i name="CSHIFT">      0.10000000</i>
   <i name="OMEGAMAX">     -1.00000000</i>
   <i name="DEG_THRESHOLD">      0.00200000</i>
   <i name="RTIME">     -0.10000000</i>
   <i name="WPLASMAI">      0.00000000</i>
   <v name="DFIELD">      0.00000000      0.00000000      0.00000000</v>
   <v name="WPLASMA">      0.00000000      0.00000000      0.00000000      0.00000000      0.00000000      0.00000000      0.00000000      0.00000000      0.00000000</v>
  </separator>
  <separator name="orbital magnetization" >
   <i type="logical" name="NUCIND"> F  </i>
   <v name="MAGPOS">      0.00000000      0.00000000      0.00000000</v>
   <i type="logical" name="LNICSALL"> T  </i>
   <i type="logical" name="ORBITALMAG"> F  </i>
   <i type="logical" name="LMAGBLOCH"> F  </i>
   <i type="logical" name="LCHIMAG"> F  </i>
   <i type="logical" name="LGAUGE"> T  </i>
   <i type="int" name="MAGATOM">     0</i>
   <v name="MAGDIPOL">      0.00000000      0.00000000      0.00000000</v>
   <v name="AVECCONST">      0.00000000      0.00000000      0.00000000</v>
  </separator>
  <separator name="response functions" >
   <i type="logical" name="LADDER"> F  </i>
   <i type="logical" name="LRPAFORCE"> F  </i>
   <i type="logical" name="LFXC"> F  </i>
   <i type="logical" name="LHARTREE"> T  </i>
   <i type="int" name="IBSE">     0</i>
   <v type="int" name="KPOINT">    -1     0     0     0</v>
   <i type="logical" name="LTCTE"> F  </i>
   <i type="logical" name="LTETE"> F  </i>
   <i type="logical" name="LTRIPLET"> F  </i>
   <i type="logical" name="LFXCEPS"> F  </i>
   <i type="logical" name="LFXHEG"> F  </i>
   <i type="int" name="NATURALO">     2</i>
   <i type="logical" name="L2ORDER"> F  </i>
   <i type="logical" name="LMP2LT"> F  </i>
   <i type="logical" name="LUSEW"> F  </i>
   <i name="ENCUTGW">     -2.00000000</i>
   <i name="ENCUTGWSOFT">     -2.00000000</i>
   <i name="ENCUTLF">     -1.00000000</i>
   <i type="int" name="LMAXMP2">    -1</i>
   <i name="SCISSOR">      0.00000000</i>
   <i type="int" name="NOMEGA">     0</i>
   <i type="int" name="NOMEGAR">     0</i>
   <i type="int" name="NBANDSGW">    -1</i>
   <i type="int" name="NBANDSO">    -1</i>
   <i type="int" name="NBANDSV">    -1</i>
   <i type="int" name="NELM">   200</i>
   <i type="int" name="NELMHF">     1</i>
   <i type="int" name="DIM">     3</i>
   <i type="int" name="ANTIRES">     0</i>
   <i name="OMEGAMAX">    -30.00000000</i>
   <i name="OMEGAMIN">    -30.00000000</i>
   <i name="OMEGATL">   -200.00000000</i>
   <i type="int" name="OMEGAGRID">   140</i>
   <i name="CSHIFT">     -0.10000000</i>
   <i type="logical" name="SELFENERGY"> F  </i>
   <i type="logical" name="LSPECTRAL"> F  </i>
   <i type="logical" name="LSPECTRALGW"> F  </i>
   <i type="logical" name="LSINGLES"> F  </i>
   <i type="logical" name="LFERMIGW"> F  </i>
   <i type="logical" name="ODDONLYGW"> F  </i>
   <i type="logical" name="EVENONLYGW"> F  </i>
   <i type="int" name="NKREDLFX">     1</i>
   <i type="int" name="NKREDLFY">     1</i>
   <i type="int" name="NKREDLFZ">     1</i>
   <i type="int" name="MAXMEM">  2800</i>
   <i type="int" name="TELESCOPE">     0</i>
   <i type="int" name="TAUPAR">     1</i>
   <i type="int" name="OMEGAPAR">    -1</i>
   <i name="LAMBDA">      1.00000000</i>
  </separator>
  <separator name="External order field" >
   <i name="OFIELD_KAPPA">      0.00000000</i>
   <v name="OFIELD_K">      0.00000000      0.00000000      0.00000000</v>
   <i name="OFIELD_Q6_NEAR">      0.00000000</i>
   <i name="OFIELD_Q6_FAR">      0.00000000</i>
   <i name="OFIELD_A">      0.00000000</i>
  </separator>
 </parameters>
 <atominfo>
  <atoms>     144 </atoms>
  <types>       2 </types>
  <array name="atoms" >
   <dimension dim="1">ion</dimension>
   <field type="string">element</field>
   <field type="int">atomtype</field>
   <set>
    <rc><c>Ag</c><c>   1</c></rc>
    <rc><c>Ag</c><c>   1</c></rc>
    <rc><c>Ag</c><c>   1</c></rc>
    <rc><c>Ag</c><c>   1</c></rc>
    <rc><c>Ag</c><c>   1</c></rc>
    <rc><c>Ag</c><c>   1</c></rc>
    <rc><c>Ag</c><c>   1</c></rc>
    <rc><c>Ag</c><c>   1</c></rc>
    <rc><c>Ag</c><c>   1</c></rc>
    <rc><c>Ag</c><c>   1</c></rc>
    <rc><c>Ag</c><c>   1</c></rc>
    <rc><c>Ag</c><c>   1</c></rc>
    <rc><c>Ag</c><c>   1</c></rc>
    <rc><c>Ag</c><c>   1</c></rc>
    <rc><c>Ag</c><c>   1</c></rc>
    <rc><c>Ag</c><c>   1</c></rc>
    <rc><c>Ag</c><c>   1</c></rc>
    <rc><c>Ag</c><c>   1</c></rc>
    <rc><c>Ag</c><c>   1</c></rc>
    <rc><c>Ag</c><c>   1</c></rc>
    <rc><c>Ag</c><c>   1</c></rc>
    <rc><c>Ag</c><c>   1</c></rc>
    <rc><c>Ag</c><c>   1</c></rc>
    <rc><c>Ag</c><c>   1</c></rc>
    <rc><c>Ag</c><c>   1</c></rc>
    <rc><c>Ag</c><c>   1</c></rc>
    <rc><c>Ag</c><c>   1</c></rc>
    <rc><c>Ag</c><c>   1</c></rc>
    <rc><c>Ag</c><c>   1</c></rc>
    <rc><c>Ag</c><c>   1</c></rc>
    <rc><c>Ag</c><c>   1</c></rc>
    <rc><c>Ag</c><c>   1</c></rc>
    <rc><c>Ag</c><c>   1</c></rc>
    <rc><c>Ag</c><c>   1</c></rc>
    <rc><c>Ag</c><c>   1</c></rc>
    <rc><c>Ag</c><c>   1</c></rc>
    <rc><c>Ag</c><c>   1</c></rc>
    <rc><c>Ag</c><c>   1</c></rc>
    <rc><c>Ag</c><c>   1</c></rc>
    <rc><c>Ag</c><c>   1</c></rc>
    <rc><c>Ag</c><c>   1</c></rc>
    <rc><c>Ag</c><c>   1</c></rc>
    <rc><c>Ag</c><c>   1</c></rc>
    <rc><c>Ag</c><c>   1</c></rc>
    <rc><c>Ag</c><c>   1</c></rc>
    <rc><c>Ag</c><c>   1</c></rc>
    <rc><c>Ag</c><c>   1</c></rc>
    <rc><c>Ag</c><c>   1</c></rc>
    <rc><c>Ag</c><c>   1</c></rc>
    <rc><c>Ag</c><c>   1</c></rc>
    <rc><c>Ag</c><c>   1</c></rc>
    <rc><c>Ag</c><c>   1</c></rc>
    <rc><c>Ag</c><c>   1</c></rc>
    <rc><c>Ag</c><c>   1</c></rc>
    <rc><c>Ag</c><c>   1</c></rc>
    <rc><c>Ag</c><c>   1</c></rc>
    <rc><c>Ag</c><c>   1</c></rc>
    <rc><c>Ag</c><c>   1</c></rc>
    <rc><c>Ag</c><c>   1</c></rc>
    <rc><c>Ag</c><c>   1</c></rc>
    <rc><c>Ag</c><c>   1</c></rc>
    <rc><c>Ag</c><c>   1</c></rc>
    <rc><c>Ag</c><c>   1</c></rc>
    <rc><c>Ag</c><c>   1</c></rc>
    <rc><c>Ag</c><c>   1</c></rc>
    <rc><c>Ag</c><c>   1</c></rc>
    <rc><c>Ag</c><c>   1</c></rc>
    <rc><c>Ag</c><c>   1</c></rc>
    <rc><c>Ag</c><c>   1</c></rc>
    <rc><c>Ag</c><c>   1</c></rc>
    <rc><c>Ag</c><c>   1</c></rc>
    <rc><c>Ag</c><c>   1</c></rc>
    <rc><c>Ag</c><c>   1</c></rc>
    <rc><c>Ag</c><c>   1</c></rc>
    <rc><c>Ag</c><c>   1</c></rc>
    <rc><c>Ag</c><c>   1</c></rc>
    <rc><c>Ag</c><c>   1</c></rc>
    <rc><c>Ag</c><c>   1</c></rc>
    <rc><c>Ag</c><c>   1</c></rc>
    <rc><c>Ag</c><c>   1</c></rc>
    <rc><c>Ag</c><c>   1</c></rc>
    <rc><c>Ag</c><c>   1</c></rc>
    <rc><c>Ag</c><c>   1</c></rc>
    <rc><c>Ag</c><c>   1</c></rc>
    <rc><c>Ag</c><c>   1</c></rc>
    <rc><c>Ag</c><c>   1</c></rc>
    <rc><c>Ag</c><c>   1</c></rc>
    <rc><c>Ag</c><c>   1</c></rc>
    <rc><c>Ag</c><c>   1</c></rc>
    <rc><c>Ag</c><c>   1</c></rc>
    <rc><c>Ag</c><c>   1</c></rc>
    <rc><c>Ag</c><c>   1</c></rc>
    <rc><c>Ag</c><c>   1</c></rc>
    <rc><c>Ag</c><c>   1</c></rc>
    <rc><c>Ag</c><c>   1</c></rc>
    <rc><c>Ag</c><c>   1</c></rc>
    <rc><c>Se</c><c>   2</c></rc>
    <rc><c>Se</c><c>   2</c></rc>
    <rc><c>Se</c><c>   2</c></rc>
    <rc><c>Se</c><c>   2</c></rc>
    <rc><c>Se</c><c>   2</c></rc>
    <rc><c>Se</c><c>   2</c></rc>
    <rc><c>Se</c><c>   2</c></rc>
    <rc><c>Se</c><c>   2</c></rc>
    <rc><c>Se</c><c>   2</c></rc>
    <rc><c>Se</c><c>   2</c></rc>
    <rc><c>Se</c><c>   2</c></rc>
    <rc><c>Se</c><c>   2</c></rc>
    <rc><c>Se</c><c>   2</c></rc>
    <rc><c>Se</c><c>   2</c></rc>
    <rc><c>Se</c><c>   2</c></rc>
    <rc><c>Se</c><c>   2</c></rc>
    <rc><c>Se</c><c>   2</c></rc>
    <rc><c>Se</c><c>   2</c></rc>
    <rc><c>Se</c><c>   2</c></rc>
    <rc><c>Se</c><c>   2</c></rc>
    <rc><c>Se</c><c>   2</c></rc>
    <rc><c>Se</c><c>   2</c></rc>
    <rc><c>Se</c><c>   2</c></rc>
    <rc><c>Se</c><c>   2</c></rc>
    <rc><c>Se</c><c>   2</c></rc>
    <rc><c>Se</c><c>   2</c></rc>
    <rc><c>Se</c><c>   2</c></rc>
    <rc><c>Se</c><c>   2</c></rc>
    <rc><c>Se</c><c>   2</c></rc>
    <rc><c>Se</c><c>   2</c></rc>
    <rc><c>Se</c><c>   2</c></rc>
    <rc><c>Se</c><c>   2</c></rc>
    <rc><c>Se</c><c>   2</c></rc>
    <rc><c>Se</c><c>   2</c></rc>
    <rc><c>Se</c><c>   2</c></rc>
    <rc><c>Se</c><c>   2</c></rc>
    <rc><c>Se</c><c>   2</c></rc>
    <rc><c>Se</c><c>   2</c></rc>
    <rc><c>Se</c><c>   2</c></rc>
    <rc><c>Se</c><c>   2</c></rc>
    <rc><c>Se</c><c>   2</c></rc>
    <rc><c>Se</c><c>   2</c></rc>
    <rc><c>Se</c><c>   2</c></rc>
    <rc><c>Se</c><c>   2</c></rc>
    <rc><c>Se</c><c>   2</c></rc>
    <rc><c>Se</c><c>   2</c></rc>
    <rc><c>Se</c><c>   2</c></rc>
    <rc><c>Se</c><c>   2</c></rc>
   </set>
  </array>
  <array name="atomtypes" >
   <dimension dim="1">type</dimension>
   <field type="int">atomspertype</field>
   <field type="string">element</field>
   <field>mass</field>
   <field>valence</field>
   <field type="string">pseudopotential</field>
   <set>
    <rc><c>  96</c><c>Ag</c><c>    107.86800000</c><c>     11.00000000</c><c>  PAW_PBE Ag 02Apr2005                  </c></rc>
    <rc><c>  48</c><c>Se</c><c>     78.96000000</c><c>      6.00000000</c><c>  PAW_PBE Se 06Sep2000                  </c></rc>
   </set>
  </array>
 </atominfo>
 <structure name="initialpos" >
  <crystal>
   <varray name="basis" >
    <v>      14.01039598       0.00139138       0.00000000 </v>
    <v>      -0.00150196      13.76691092       0.00000000 </v>
    <v>       0.00000000       0.00000000      14.55019386 </v>
   </varray>
   <i name="volume">   2806.43958022 </i>
   <varray name="rec_basis" >
    <v>       0.07137557       0.00000779       0.00000000 </v>
    <v>      -0.00000721       0.07263794       0.00000000 </v>
    <v>       0.00000000       0.00000000       0.06872761 </v>
   </varray>
  </crystal>
  <varray name="positions" >
   <v>       0.42987898       0.17167077       0.33247735 </v>
   <v>       0.92987898       0.17167077       0.33247735 </v>
   <v>       0.42987898       0.67167077       0.33247735 </v>
   <v>       0.92987898       0.67167077       0.33247735 </v>
   <v>       0.42987898       0.17167077       0.66581068 </v>
   <v>       0.92987898       0.17167077       0.66581068 </v>
   <v>       0.42987898       0.67167077       0.66581068 </v>
   <v>       0.92987898       0.67167077       0.66581068 </v>
   <v>       0.42987898       0.17167077       0.99914401 </v>
   <v>       0.92987898       0.17167077       0.99914401 </v>
   <v>       0.42987898       0.67167077       0.99914401 </v>
   <v>       0.92987898       0.67167077       0.99914401 </v>
   <v>       0.07012102       0.32832923       0.33247735 </v>
   <v>       0.57012102       0.32832923       0.33247735 </v>
   <v>       0.07012102       0.82832923       0.33247735 </v>
   <v>       0.57012102       0.82832923       0.33247735 </v>
   <v>       0.07012102       0.32832923       0.66581068 </v>
   <v>       0.57012102       0.32832923       0.66581068 </v>
   <v>       0.07012102       0.82832923       0.66581068 </v>
   <v>       0.57012102       0.82832923       0.66581068 </v>
   <v>       0.07012102       0.32832923       0.99914401 </v>
   <v>       0.57012102       0.32832923       0.99914401 </v>
   <v>       0.07012102       0.82832923       0.99914401 </v>
   <v>       0.57012102       0.82832923       0.99914401 </v>
   <v>       0.32012053       0.42167367       0.05641075 </v>
   <v>       0.82012053       0.42167367       0.05641075 </v>
   <v>       0.32012053       0.92167367       0.05641075 </v>
   <v>       0.82012053       0.92167367       0.05641075 </v>
   <v>       0.32012053       0.42167367       0.38974408 </v>
   <v>       0.82012053       0.42167367       0.38974408 </v>
   <v>       0.32012053       0.92167367       0.38974408 </v>
   <v>       0.82012053       0.92167367       0.38974408 </v>
   <v>       0.32012053       0.42167367       0.72307741 </v>
   <v>       0.82012053       0.42167367       0.72307741 </v>
   <v>       0.32012053       0.92167367       0.72307741 </v>
   <v>       0.82012053       0.92167367       0.72307741 </v>
   <v>       0.17987947       0.07832633       0.05641075 </v>
   <v>       0.67987947       0.07832633       0.05641075 </v>
   <v>       0.17987947       0.57832633       0.05641075 </v>
   <v>       0.67987947       0.57832633       0.05641075 </v>
   <v>       0.17987947       0.07832633       0.38974408 </v>
   <v>       0.67987947       0.07832633       0.38974408 </v>
   <v>       0.17987947       0.57832633       0.38974408 </v>
   <v>       0.67987947       0.57832633       0.38974408 </v>
   <v>       0.17987947       0.07832633       0.72307741 </v>
   <v>       0.67987947       0.07832633       0.72307741 </v>
   <v>       0.17987947       0.57832633       0.72307741 </v>
   <v>       0.67987947       0.57832633       0.72307741 </v>
   <v>       0.17987776       0.32832369       0.16580856 </v>
   <v>       0.67987776       0.32832369       0.16580856 </v>
   <v>       0.17987776       0.82832369       0.16580856 </v>
   <v>       0.67987776       0.82832369       0.16580856 </v>
   <v>       0.17987776       0.32832369       0.49914189 </v>
   <v>       0.67987776       0.32832369       0.49914189 </v>
   <v>       0.17987776       0.82832369       0.49914189 </v>
   <v>       0.67987776       0.82832369       0.49914189 </v>
   <v>       0.17987776       0.32832369       0.83247522 </v>
   <v>       0.67987776       0.32832369       0.83247522 </v>
   <v>       0.17987776       0.82832369       0.83247522 </v>
   <v>       0.67987776       0.82832369       0.83247522 </v>
   <v>       0.32012224       0.17167631       0.16580856 </v>
   <v>       0.82012224       0.17167631       0.16580856 </v>
   <v>       0.32012224       0.67167631       0.16580856 </v>
   <v>       0.82012224       0.67167631       0.16580856 </v>
   <v>       0.32012224       0.17167631       0.49914189 </v>
   <v>       0.82012224       0.17167631       0.49914189 </v>
   <v>       0.32012224       0.67167631       0.49914189 </v>
   <v>       0.82012224       0.67167631       0.49914189 </v>
   <v>       0.32012224       0.17167631       0.83247522 </v>
   <v>       0.82012224       0.17167631       0.83247522 </v>
   <v>       0.32012224       0.67167631       0.83247522 </v>
   <v>       0.82012224       0.67167631       0.83247522 </v>
   <v>       0.42987656       0.42167494       0.22308000 </v>
   <v>       0.92987656       0.42167494       0.22308000 </v>
   <v>       0.42987656       0.92167494       0.22308000 </v>
   <v>       0.92987656       0.92167494       0.22308000 </v>
   <v>       0.42987656       0.42167494       0.55641333 </v>
   <v>       0.92987656       0.42167494       0.55641333 </v>
   <v>       0.42987656       0.92167494       0.55641333 </v>
   <v>       0.92987656       0.92167494       0.55641333 </v>
   <v>       0.42987656       0.42167494       0.88974666 </v>
   <v>       0.92987656       0.42167494       0.88974666 </v>
   <v>       0.42987656       0.92167494       0.88974666 </v>
   <v>       0.92987656       0.92167494       0.88974666 </v>
   <v>       0.07012344       0.07832506       0.22308000 </v>
   <v>       0.57012344       0.07832506       0.22308000 </v>
   <v>       0.07012344       0.57832506       0.22308000 </v>
   <v>       0.57012344       0.57832506       0.22308000 </v>
   <v>       0.07012344       0.07832506       0.55641333 </v>
   <v>       0.57012344       0.07832506       0.55641333 </v>
   <v>       0.07012344       0.57832506       0.55641333 </v>
   <v>       0.57012344       0.57832506       0.55641333 </v>
   <v>       0.07012344       0.07832506       0.88974666 </v>
   <v>       0.57012344       0.07832506       0.88974666 </v>
   <v>       0.07012344       0.57832506       0.88974666 </v>
   <v>       0.57012344       0.57832506       0.88974666 </v>
   <v>       0.00000000       0.00000000       0.05479365 </v>
   <v>       0.50000000       0.00000000       0.05479365 </v>
   <v>       0.00000000       0.50000000       0.05479365 </v>
   <v>       0.50000000       0.50000000       0.05479365 </v>
   <v>       0.00000000       0.00000000       0.38812698 </v>
   <v>       0.50000000       0.00000000       0.38812698 </v>
   <v>       0.00000000       0.50000000       0.38812698 </v>
   <v>       0.50000000       0.50000000       0.38812698 </v>
   <v>       0.00000000       0.00000000       0.72146032 </v>
   <v>       0.50000000       0.00000000       0.72146032 </v>
   <v>       0.00000000       0.50000000       0.72146032 </v>
   <v>       0.50000000       0.50000000       0.72146032 </v>
   <v>       0.25000000       0.00000000       0.22145206 </v>
   <v>       0.75000000       0.00000000       0.22145206 </v>
   <v>       0.25000000       0.50000000       0.22145206 </v>
   <v>       0.75000000       0.50000000       0.22145206 </v>
   <v>       0.25000000       0.00000000       0.55478539 </v>
   <v>       0.75000000       0.00000000       0.55478539 </v>
   <v>       0.25000000       0.50000000       0.55478539 </v>
   <v>       0.75000000       0.50000000       0.55478539 </v>
   <v>       0.25000000       0.00000000       0.88811873 </v>
   <v>       0.75000000       0.00000000       0.88811873 </v>
   <v>       0.25000000       0.50000000       0.88811873 </v>
   <v>       0.75000000       0.50000000       0.88811873 </v>
   <v>       0.00000000       0.25000000       0.16743769 </v>
   <v>       0.50000000       0.25000000       0.16743769 </v>
   <v>       0.00000000       0.75000000       0.16743769 </v>
   <v>       0.50000000       0.75000000       0.16743769 </v>
   <v>       0.00000000       0.25000000       0.50077102 </v>
   <v>       0.50000000       0.25000000       0.50077102 </v>
   <v>       0.00000000       0.75000000       0.50077102 </v>
   <v>       0.50000000       0.75000000       0.50077102 </v>
   <v>       0.00000000       0.25000000       0.83410435 </v>
   <v>       0.50000000       0.25000000       0.83410435 </v>
   <v>       0.00000000       0.75000000       0.83410435 </v>
   <v>       0.50000000       0.75000000       0.83410435 </v>
   <v>       0.25049507       0.25000000       0.00125839 </v>
   <v>       0.75000000       0.25000000       0.00076332 </v>
   <v>       0.25000000       0.75000000       0.00076332 </v>
   <v>       0.75000000       0.75000000       0.00076332 </v>
   <v>       0.25000000       0.25000000       0.33409665 </v>
   <v>       0.75000000       0.25000000       0.33409665 </v>
   <v>       0.25000000       0.75000000       0.33409665 </v>
   <v>       0.75000000       0.75000000       0.33409665 </v>
   <v>       0.25000000       0.25000000       0.66742999 </v>
   <v>       0.75000000       0.25000000       0.66742999 </v>
   <v>       0.25000000       0.75000000       0.66742999 </v>
   <v>       0.75000000       0.75000000       0.66742999 </v>
  </varray>
 </structure>
 <calculation>
  <scstep>
   <time name="dav">  895.96  898.29</time>
   <time name="total">  899.30  901.67</time>
   <energy>
    <i name="alphaZ">   4890.97834259 </i>
    <i name="ewald"> -98842.93328273 </i>
    <i name="hartreedc"> -25789.31600171 </i>
    <i name="XCdc">   -889.85987012 </i>
    <i name="pawpsdc"> 106286.73805879 </i>
    <i name="pawaedc">-101298.59693205 </i>
    <i name="eentropy">     -0.04314638 </i>
    <i name="bandstr">  14366.14242096 </i>
    <i name="atom"> 111881.97810035 </i>
    <i name="e_fr_energy">  10605.08768970 </i>
    <i name="e_wo_entrp">  10605.13083607 </i>
    <i name="e_0_energy">  10605.10926288 </i>
   </energy>
  </scstep>
  <scstep>
   <time name="dav">  929.43  931.62</time>
   <time name="total">  929.44  931.62</time>
   <energy>
    <i name="e_fr_energy">    151.05393715 </i>
    <i name="e_wo_entrp">    151.06623973 </i>
    <i name="e_0_energy">    151.06008844 </i>
   </energy>
  </scstep>
  <scstep>
   <time name="dav">  982.74  984.99</time>
   <time name="total">  982.75  985.00</time>
   <energy>
    <i name="e_fr_energy">   -517.93708059 </i>
    <i name="e_wo_entrp">   -517.93095167 </i>
    <i name="e_0_energy">   -517.93401613 </i>
   </energy>
  </scstep>
  <scstep>
   <time name="dav">  958.04  960.51</time>
   <time name="total">  958.05  960.52</time>
   <energy>
    <i name="e_fr_energy">   -535.41614002 </i>
    <i name="e_wo_entrp">   -535.41067058 </i>
    <i name="e_0_energy">   -535.41340530 </i>
   </energy>
  </scstep>
  <scstep>
   <time name="dav">  967.36  969.74</time>
   <time name="total">  982.03  984.44</time>
   <energy>
    <i name="e_fr_energy">   -535.67095707 </i>
    <i name="e_wo_entrp">   -535.66547951 </i>
    <i name="e_0_energy">   -535.66821829 </i>
   </energy>
  </scstep>
  <scstep>
   <time name="dav">  933.54  936.20</time>
   <time name="total">  951.44  954.15</time>
   <energy>
    <i name="e_fr_energy">   -504.98245932 </i>
    <i name="e_wo_entrp">   -504.96697254 </i>
    <i name="e_0_energy">   -504.97471593 </i>
   </energy>
  </scstep>
  <scstep>
   <time name="dav">  921.32  923.63</time>
   <time name="total">  939.05  941.40</time>
   <energy>
    <i name="e_fr_energy">   -505.65767118 </i>
    <i name="e_wo_entrp">   -505.64190983 </i>
    <i name="e_0_energy">   -505.64979051 </i>
   </energy>
  </scstep>
  <scstep>
   <time name="dav">  941.49  943.73</time>
   <time name="total">  959.24  961.52</time>
   <energy>
    <i name="e_fr_energy">   -505.18188140 </i>
    <i name="e_wo_entrp">   -505.16726571 </i>
    <i name="e_0_energy">   -505.17457355 </i>
   </energy>
  </scstep>
  <scstep>
   <time name="dav">  923.68  925.95</time>
   <time name="total">  941.73  944.04</time>
   <energy>
    <i name="e_fr_energy">   -505.12625115 </i>
    <i name="e_wo_entrp">   -505.11102509 </i>
    <i name="e_0_energy">   -505.11863812 </i>
   </energy>
  </scstep>
  <scstep>
   <time name="dav">  925.72  928.07</time>
   <time name="total">  943.41  945.80</time>
   <energy>
    <i name="e_fr_energy">   -505.12837923 </i>
    <i name="e_wo_entrp">   -505.11309534 </i>
    <i name="e_0_energy">   -505.12073729 </i>
   </energy>
  </scstep>
  <scstep>
   <time name="dav">  946.75  949.03</time>
   <time name="total">  964.44  966.76</time>
   <energy>
    <i name="e_fr_energy">   -505.12825217 </i>
    <i name="e_wo_entrp">   -505.11303642 </i>
    <i name="e_0_energy">   -505.12064430 </i>
   </energy>
  </scstep>
  <scstep>
   <time name="dav">  934.70  936.94</time>
   <time name="total">  952.32  954.61</time>
   <energy>
    <i name="e_fr_energy">   -505.12821034 </i>
    <i name="e_wo_entrp">   -505.11297451 </i>
    <i name="e_0_energy">   -505.12059242 </i>
   </energy>
  </scstep>
  <scstep>
   <time name="dav">  983.93  986.31</time>
   <time name="total"> 1001.60 1004.02</time>
   <energy>
    <i name="e_fr_energy">   -505.12821040 </i>
    <i name="e_wo_entrp">   -505.11297742 </i>
    <i name="e_0_energy">   -505.12059391 </i>
   </energy>
  </scstep>
  <scstep>
   <time name="dav">  929.25  931.72</time>
   <time name="total">  946.88  949.40</time>
   <energy>
    <i name="e_fr_energy">   -505.12820927 </i>
    <i name="e_wo_entrp">   -505.11297740 </i>
    <i name="e_0_energy">   -505.12059333 </i>
   </energy>
  </scstep>
  <scstep>
   <time name="dav">  942.91  945.33</time>
   <time name="total">  960.41  962.88</time>
   <energy>
    <i name="e_fr_energy">   -505.12820776 </i>
    <i name="e_wo_entrp">   -505.11297609 </i>
    <i name="e_0_energy">   -505.12059192 </i>
   </energy>
  </scstep>
  <scstep>
   <time name="dav">  847.12  849.36</time>
   <time name="total">  850.51  852.77</time>
   <energy>
    <i name="alphaZ">   4890.97834259 </i>
    <i name="ewald"> -98842.93328273 </i>
    <i name="hartreedc"> -24658.15719753 </i>
    <i name="XCdc">   -922.44549982 </i>
    <i name="pawpsdc"> 122253.37686915 </i>
    <i name="pawaedc">-117445.63927058 </i>
    <i name="eentropy">     -0.01523145 </i>
    <i name="bandstr">   2337.72896226 </i>
    <i name="atom"> 111881.97810035 </i>
    <i name="e_fr_energy">   -505.12820776 </i>
    <i name="e_wo_entrp">   -505.11297631 </i>
    <i name="e_0_energy">   -505.12059204 </i>
   </energy>
  </scstep>
  <structure>
   <crystal>
    <varray name="basis" >
     <v>      14.01039598       0.00139138       0.00000000 </v>
     <v>      -0.00150196      13.76691092       0.00000000 </v>
     <v>       0.00000000       0.00000000      14.55019386 </v>
    </varray>
    <i name="volume">   2806.43958022 </i>
    <varray name="rec_basis" >
     <v>       0.07137557       0.00000779       0.00000000 </v>
     <v>      -0.00000721       0.07263794       0.00000000 </v>
     <v>       0.00000000       0.00000000       0.06872761 </v>
    </varray>
   </crystal>
   <varray name="positions" >
    <v>       0.42987898       0.17167077       0.33247735 </v>
    <v>       0.92987898       0.17167077       0.33247735 </v>
    <v>       0.42987898       0.67167077       0.33247735 </v>
    <v>       0.92987898       0.67167077       0.33247735 </v>
    <v>       0.42987898       0.17167077       0.66581068 </v>
    <v>       0.92987898       0.17167077       0.66581068 </v>
    <v>       0.42987898       0.67167077       0.66581068 </v>
    <v>       0.92987898       0.67167077       0.66581068 </v>
    <v>       0.42987898       0.17167077       0.99914401 </v>
    <v>       0.92987898       0.17167077       0.99914401 </v>
    <v>       0.42987898       0.67167077       0.99914401 </v>
    <v>       0.92987898       0.67167077       0.99914401 </v>
    <v>       0.07012102       0.32832923       0.33247735 </v>
    <v>       0.57012102       0.32832923       0.33247735 </v>
    <v>       0.07012102       0.82832923       0.33247735 </v>
    <v>       0.57012102       0.82832923       0.33247735 </v>
    <v>       0.07012102       0.32832923       0.66581068 </v>
    <v>       0.57012102       0.32832923       0.66581068 </v>
    <v>       0.07012102       0.82832923       0.66581068 </v>
    <v>       0.57012102       0.82832923       0.66581068 </v>
    <v>       0.07012102       0.32832923       0.99914401 </v>
    <v>       0.57012102       0.32832923       0.99914401 </v>
    <v>       0.07012102       0.82832923       0.99914401 </v>
    <v>       0.57012102       0.82832923       0.99914401 </v>
    <v>       0.32012053       0.42167367       0.05641075 </v>
    <v>       0.82012053       0.42167367       0.05641075 </v>
    <v>       0.32012053       0.92167367       0.05641075 </v>
    <v>       0.82012053       0.92167367       0.05641075 </v>
    <v>       0.32012053       0.42167367       0.38974408 </v>
    <v>       0.82012053       0.42167367       0.38974408 </v>
    <v>       0.32012053       0.92167367       0.38974408 </v>
    <v>       0.82012053       0.92167367       0.38974408 </v>
    <v>       0.32012053       0.42167367       0.72307741 </v>
    <v>       0.82012053       0.42167367       0.72307741 </v>
    <v>       0.32012053       0.92167367       0.72307741 </v>
    <v>       0.82012053       0.92167367       0.72307741 </v>
    <v>       0.17987947       0.07832633       0.05641075 </v>
    <v>       0.67987947       0.07832633       0.05641075 </v>
    <v>       0.17987947       0.57832633       0.05641075 </v>
    <v>       0.67987947       0.57832633       0.05641075 </v>
    <v>       0.17987947       0.07832633       0.38974408 </v>
    <v>       0.67987947       0.07832633       0.38974408 </v>
    <v>       0.17987947       0.57832633       0.38974408 </v>
    <v>       0.67987947       0.57832633       0.38974408 </v>
    <v>       0.17987947       0.07832633       0.72307741 </v>
    <v>       0.67987947       0.07832633       0.72307741 </v>
    <v>       0.17987947       0.57832633       0.72307741 </v>
    <v>       0.67987947       0.57832633       0.72307741 </v>
    <v>       0.17987776       0.32832369       0.16580856 </v>
    <v>       0.67987776       0.32832369       0.16580856 </v>
    <v>       0.17987776       0.82832369       0.16580856 </v>
    <v>       0.67987776       0.82832369       0.16580856 </v>
    <v>       0.17987776       0.32832369       0.49914189 </v>
    <v>       0.67987776       0.32832369       0.49914189 </v>
    <v>       0.17987776       0.82832369       0.49914189 </v>
    <v>       0.67987776       0.82832369       0.49914189 </v>
    <v>       0.17987776       0.32832369       0.83247522 </v>
    <v>       0.67987776       0.32832369       0.83247522 </v>
    <v>       0.17987776       0.82832369       0.83247522 </v>
    <v>       0.67987776       0.82832369       0.83247522 </v>
    <v>       0.32012224       0.17167631       0.16580856 </v>
    <v>       0.82012224       0.17167631       0.16580856 </v>
    <v>       0.32012224       0.67167631       0.16580856 </v>
    <v>       0.82012224       0.67167631       0.16580856 </v>
    <v>       0.32012224       0.17167631       0.49914189 </v>
    <v>       0.82012224       0.17167631       0.49914189 </v>
    <v>       0.32012224       0.67167631       0.49914189 </v>
    <v>       0.82012224       0.67167631       0.49914189 </v>
    <v>       0.32012224       0.17167631       0.83247522 </v>
    <v>       0.82012224       0.17167631       0.83247522 </v>
    <v>       0.32012224       0.67167631       0.83247522 </v>
    <v>       0.82012224       0.67167631       0.83247522 </v>
    <v>       0.42987656       0.42167494       0.22308000 </v>
    <v>       0.92987656       0.42167494       0.22308000 </v>
    <v>       0.42987656       0.92167494       0.22308000 </v>
    <v>       0.92987656       0.92167494       0.22308000 </v>
    <v>       0.42987656       0.42167494       0.55641333 </v>
    <v>       0.92987656       0.42167494       0.55641333 </v>
    <v>       0.42987656       0.92167494       0.55641333 </v>
    <v>       0.92987656       0.92167494       0.55641333 </v>
    <v>       0.42987656       0.42167494       0.88974666 </v>
    <v>       0.92987656       0.42167494       0.88974666 </v>
    <v>       0.42987656       0.92167494       0.88974666 </v>
    <v>       0.92987656       0.92167494       0.88974666 </v>
    <v>       0.07012344       0.07832506       0.22308000 </v>
    <v>       0.57012344       0.07832506       0.22308000 </v>
    <v>       0.07012344       0.57832506       0.22308000 </v>
    <v>       0.57012344       0.57832506       0.22308000 </v>
    <v>       0.07012344       0.07832506       0.55641333 </v>
    <v>       0.57012344       0.07832506       0.55641333 </v>
    <v>       0.07012344       0.57832506       0.55641333 </v>
    <v>       0.57012344       0.57832506       0.55641333 </v>
    <v>       0.07012344       0.07832506       0.88974666 </v>
    <v>       0.57012344       0.07832506       0.88974666 </v>
    <v>       0.07012344       0.57832506       0.88974666 </v>
    <v>       0.57012344       0.57832506       0.88974666 </v>
    <v>       0.00000000       0.00000000       0.05479365 </v>
    <v>       0.50000000       0.00000000       0.05479365 </v>
    <v>       0.00000000       0.50000000       0.05479365 </v>
    <v>       0.50000000       0.50000000       0.05479365 </v>
    <v>       0.00000000       0.00000000       0.38812698 </v>
    <v>       0.50000000       0.00000000       0.38812698 </v>
    <v>       0.00000000       0.50000000       0.38812698 </v>
    <v>       0.50000000       0.50000000       0.38812698 </v>
    <v>       0.00000000       0.00000000       0.72146032 </v>
    <v>       0.50000000       0.00000000       0.72146032 </v>
    <v>       0.00000000       0.50000000       0.72146032 </v>
    <v>       0.50000000       0.50000000       0.72146032 </v>
    <v>       0.25000000       0.00000000       0.22145206 </v>
    <v>       0.75000000       0.00000000       0.22145206 </v>
    <v>       0.25000000       0.50000000       0.22145206 </v>
    <v>       0.75000000       0.50000000       0.22145206 </v>
    <v>       0.25000000       0.00000000       0.55478539 </v>
    <v>       0.75000000       0.00000000       0.55478539 </v>
    <v>       0.25000000       0.50000000       0.55478539 </v>
    <v>       0.75000000       0.50000000       0.55478539 </v>
    <v>       0.25000000       0.00000000       0.88811873 </v>
    <v>       0.75000000       0.00000000       0.88811873 </v>
    <v>       0.25000000       0.50000000       0.88811873 </v>
    <v>       0.75000000       0.50000000       0.88811873 </v>
    <v>       0.00000000       0.25000000       0.16743769 </v>
    <v>       0.50000000       0.25000000       0.16743769 </v>
    <v>       0.00000000       0.75000000       0.16743769 </v>
    <v>       0.50000000       0.75000000       0.16743769 </v>
    <v>       0.00000000       0.25000000       0.50077102 </v>
    <v>       0.50000000       0.25000000       0.50077102 </v>
    <v>       0.00000000       0.75000000       0.50077102 </v>
    <v>       0.50000000       0.75000000       0.50077102 </v>
    <v>       0.00000000       0.25000000       0.83410435 </v>
    <v>       0.50000000       0.25000000       0.83410435 </v>
    <v>       0.00000000       0.75000000       0.83410435 </v>
    <v>       0.50000000       0.75000000       0.83410435 </v>
    <v>       0.25049507       0.25000000       0.00125839 </v>
    <v>       0.75000000       0.25000000       0.00076332 </v>
    <v>       0.25000000       0.75000000       0.00076332 </v>
    <v>       0.75000000       0.75000000       0.00076332 </v>
    <v>       0.25000000       0.25000000       0.33409665 </v>
    <v>       0.75000000       0.25000000       0.33409665 </v>
    <v>       0.25000000       0.75000000       0.33409665 </v>
    <v>       0.75000000       0.75000000       0.33409665 </v>
    <v>       0.25000000       0.25000000       0.66742999 </v>
    <v>       0.75000000       0.25000000       0.66742999 </v>
    <v>       0.25000000       0.75000000       0.66742999 </v>
    <v>       0.75000000       0.75000000       0.66742999 </v>
   </varray>
  </structure>
  <varray name="forces" >
   <v>      -0.00033807       0.00006771      -0.00079998 </v>
   <v>      -0.00033185      -0.00005398       0.00028303 </v>
   <v>      -0.00008814       0.00007824      -0.00003318 </v>
   <v>      -0.00005093       0.00006712      -0.00003090 </v>
   <v>       0.00025264       0.00013992      -0.00032577 </v>
   <v>      -0.00037060      -0.00017785      -0.00060922 </v>
   <v>       0.00001276       0.00004358      -0.00003412 </v>
   <v>      -0.00003721       0.00011605      -0.00006516 </v>
   <v>       0.00848231      -0.00574527      -0.00102828 </v>
   <v>       0.00008896       0.00009690       0.00012880 </v>
   <v>       0.00005778       0.00003162       0.00004254 </v>
   <v>      -0.00003686       0.00008979      -0.00003294 </v>
   <v>       0.00025240      -0.00003188      -0.00033768 </v>
   <v>      -0.00027674      -0.00031391      -0.00069976 </v>
   <v>       0.00006626      -0.00007734      -0.00005731 </v>
   <v>      -0.00003274      -0.00004165      -0.00005608 </v>
   <v>      -0.00026399      -0.00003242      -0.00083322 </v>
   <v>      -0.00027652      -0.00019312       0.00017189 </v>
   <v>      -0.00005486      -0.00012821      -0.00009841 </v>
   <v>      -0.00000430      -0.00009769      -0.00003769 </v>
   <v>       0.00729586      -0.00590616      -0.00219792 </v>
   <v>       0.00017817      -0.00021345       0.00000094 </v>
   <v>      -0.00002918      -0.00013958      -0.00005339 </v>
   <v>       0.00003799       0.00003510       0.00002064 </v>
   <v>       0.00414959       0.01054977       0.00241673 </v>
   <v>      -0.00010092       0.00005867       0.00017218 </v>
   <v>       0.00017920      -0.00020129       0.00033169 </v>
   <v>      -0.00024997       0.00000980       0.00010736 </v>
   <v>       0.00013739       0.00000696      -0.00001411 </v>
   <v>       0.00000126      -0.00006410       0.00000379 </v>
   <v>      -0.00015447       0.00019610      -0.00025524 </v>
   <v>      -0.00003452       0.00003971       0.00003604 </v>
   <v>       0.00012979      -0.00007916       0.00018808 </v>
   <v>       0.00000457       0.00002504       0.00002193 </v>
   <v>       0.00017317      -0.00000622      -0.00027289 </v>
   <v>      -0.00006839      -0.00000252       0.00003162 </v>
   <v>      -0.00247564      -0.00224264      -0.00111863 </v>
   <v>      -0.00012455       0.00004769       0.00002426 </v>
   <v>      -0.00006187      -0.00002074       0.00024305 </v>
   <v>      -0.00017278      -0.00002702       0.00006952 </v>
   <v>      -0.00010345      -0.00002899      -0.00005800 </v>
   <v>      -0.00015902      -0.00001170       0.00002856 </v>
   <v>       0.00001041      -0.00009580      -0.00019689 </v>
   <v>      -0.00010167      -0.00002018       0.00003445 </v>
   <v>       0.00010733       0.00019638       0.00025567 </v>
   <v>      -0.00007296      -0.00009006       0.00006719 </v>
   <v>       0.00000592      -0.00003135       0.00011053 </v>
   <v>      -0.00004495      -0.00003674       0.00006683 </v>
   <v>      -0.00252836       0.00126710       0.00373285 </v>
   <v>      -0.00080795      -0.00016520       0.00021605 </v>
   <v>      -0.00002501       0.00007280       0.00019911 </v>
   <v>      -0.00005593      -0.00002944       0.00004771 </v>
   <v>      -0.00008990       0.00002017      -0.00030873 </v>
   <v>      -0.00014312       0.00001462      -0.00021888 </v>
   <v>       0.00005155       0.00008229      -0.00011717 </v>
   <v>      -0.00000844       0.00001610      -0.00001158 </v>
   <v>       0.00077596      -0.00171589       0.00691550 </v>
   <v>      -0.00034133      -0.00002473      -0.00000264 </v>
   <v>      -0.00015638      -0.00029644      -0.00011356 </v>
   <v>       0.00001343      -0.00003697      -0.00001218 </v>
   <v>       0.00039881      -0.00429913       0.00788548 </v>
   <v>      -0.00027921      -0.00000567      -0.00007696 </v>
   <v>       0.00000980      -0.00006837       0.00009856 </v>
   <v>      -0.00001858      -0.00007779      -0.00002140 </v>
   <v>      -0.00007000      -0.00005504      -0.00032548 </v>
   <v>      -0.00015547       0.00000170      -0.00022279 </v>
   <v>       0.00001692      -0.00002620      -0.00013529 </v>
   <v>       0.00000459       0.00002065      -0.00003446 </v>
   <v>      -0.00151898       0.00025969       0.00182782 </v>
   <v>      -0.00084627      -0.00020698       0.00008074 </v>
   <v>       0.00015411       0.00060990      -0.00022399 </v>
   <v>      -0.00001497       0.00000224       0.00000982 </v>
   <v>       0.00029548       0.00022269       0.00044300 </v>
   <v>      -0.00007820       0.00008422      -0.00006378 </v>
   <v>      -0.00020868      -0.00006620       0.00009411 </v>
   <v>      -0.00011314      -0.00013038       0.00010738 </v>
   <v>      -0.00001223       0.00005435       0.00000089 </v>
   <v>       0.00000001       0.00000671      -0.00000554 </v>
   <v>      -0.00003850       0.00000800      -0.00008571 </v>
   <v>      -0.00006530      -0.00004081       0.00000024 </v>
   <v>       0.00017983       0.00004453      -0.00035086 </v>
   <v>      -0.00009255       0.00045340      -0.00004576 </v>
   <v>       0.00021145       0.00009188       0.00017515 </v>
   <v>      -0.00008782      -0.00003769      -0.00004371 </v>
   <v>      -0.00017982      -0.00018203       0.00025543 </v>
   <v>      -0.00015108       0.00035538       0.00001375 </v>
   <v>       0.00006707      -0.00004363       0.00009606 </v>
   <v>      -0.00003768      -0.00012927      -0.00002911 </v>
   <v>       0.00002985       0.00002183      -0.00005043 </v>
   <v>      -0.00005235      -0.00001003      -0.00006127 </v>
   <v>      -0.00003013      -0.00005487      -0.00009442 </v>
   <v>      -0.00007356      -0.00004800      -0.00003783 </v>
   <v>       0.00056866       0.00053808       0.00032445 </v>
   <v>      -0.00019531       0.00018324       0.00029346 </v>
   <v>      -0.00016162       0.00010774      -0.00007005 </v>
   <v>      -0.00005084      -0.00006849       0.00010198 </v>
   <v>       0.00115141       0.00064879      -0.00036005 </v>
   <v>       0.00088204      -0.00047467      -0.00063526 </v>
   <v>       0.00061665       0.00028281       0.00015671 </v>
   <v>       0.00034408       0.00056840      -0.00011295 </v>
   <v>       0.00011104       0.00004279      -0.00012461 </v>
   <v>       0.00021441       0.00013763      -0.00002402 </v>
   <v>       0.00001790      -0.00001825      -0.00003552 </v>
   <v>       0.00012223       0.00003975       0.00006633 </v>
   <v>       0.00003826       0.00049820       0.00014767 </v>
   <v>      -0.00013080       0.00006626      -0.00001421 </v>
   <v>       0.00013549      -0.00008530       0.00005331 </v>
   <v>      -0.00003303       0.00024164      -0.00010774 </v>
   <v>       0.00075633      -0.00144951       0.00223012 </v>
   <v>       0.00033509      -0.00010223       0.00001439 </v>
   <v>      -0.00027701       0.00120133       0.00123453 </v>
   <v>       0.00027629       0.00002788      -0.00004637 </v>
   <v>       0.00002361      -0.00012213       0.00045594 </v>
   <v>       0.00011625      -0.00006243       0.00016099 </v>
   <v>       0.00002887      -0.00004069       0.00046014 </v>
   <v>       0.00001947      -0.00013566       0.00006698 </v>
   <v>      -0.00086572       0.00261624       0.00163068 </v>
   <v>       0.00010955      -0.00010976       0.00000909 </v>
   <v>      -0.00179609      -0.00339562       0.00073673 </v>
   <v>       0.00010161      -0.00008782       0.00000094 </v>
   <v>       0.00080928       0.00060406      -0.00125443 </v>
   <v>       0.00520104       0.00186902       0.00259543 </v>
   <v>      -0.00003038       0.00027558      -0.00011031 </v>
   <v>       0.00007969       0.00016030       0.00003868 </v>
   <v>       0.00025287       0.00016710      -0.00000102 </v>
   <v>       0.00020479       0.00024034       0.00004427 </v>
   <v>       0.00007342       0.00003847       0.00004715 </v>
   <v>       0.00011253       0.00006077       0.00001034 </v>
   <v>       0.00493617       0.00195414       0.00273849 </v>
   <v>       0.00098601       0.00082133      -0.00144301 </v>
   <v>       0.00010169       0.00007490       0.00001735 </v>
   <v>      -0.00005181       0.00011548      -0.00008989 </v>
   <v>      -0.02781199       0.00235070      -0.03070167 </v>
   <v>       0.00047090      -0.00013719       0.00004417 </v>
   <v>       0.00019848      -0.00021248      -0.00043134 </v>
   <v>       0.00009125      -0.00001901       0.00001374 </v>
   <v>       0.00026475      -0.00010161       0.00248049 </v>
   <v>       0.00111069      -0.00034073       0.00046447 </v>
   <v>      -0.00009987      -0.00012482       0.00037067 </v>
   <v>      -0.00002717      -0.00003478       0.00007663 </v>
   <v>       0.00025993      -0.00000868       0.00244961 </v>
   <v>       0.00110236      -0.00049374       0.00046274 </v>
   <v>      -0.00010090       0.00001788       0.00037104 </v>
   <v>      -0.00002703      -0.00006991       0.00007606 </v>
  </varray>
  <varray name="stress" >
   <v>      -0.16059223       0.00464420       0.00195516 </v>
   <v>       0.00464427      -0.14039960       0.00037694 </v>
   <v>       0.00195514       0.00037701      -0.15160610 </v>
  </varray>
  <energy>
   <i name="e_fr_energy">   -505.12820776 </i>
   <i name="e_wo_entrp">   -505.12059204 </i>
   <i name="e_0_energy">     -0.01523145 </i>
  </energy>
  <time name="totalsc">17026.8317069.70</time>
  <eigenvalues>
   <array>
    <dimension dim="1">band</dimension>
    <dimension dim="2">kpoint</dimension>
    <dimension dim="3">spin</dimension>
    <field>eigene</field>
    <field>occ</field>
    <set>
     <set comment="spin 1">
      <set comment="kpoint 1">
       <r>   -7.4639    1.0000 </r>
       <r>   -7.2296    1.0000 </r>
       <r>   -7.2294    1.0000 </r>
       <r>   -7.2158    1.0000 </r>
       <r>   -7.2156    1.0000 </r>
       <r>   -7.1644    1.0000 </r>
       <r>   -7.1643    1.0000 </r>
       <r>   -7.0698    1.0000 </r>
       <r>   -7.0696    1.0000 </r>
       <r>   -7.0694    1.0000 </r>
       <r>   -7.0693    1.0000 </r>
       <r>   -7.0094    1.0000 </r>
       <r>   -7.0091    1.0000 </r>
       <r>   -7.0090    1.0000 </r>
       <r>   -7.0090    1.0000 </r>
       <r>   -6.9942    1.0000 </r>
       <r>   -6.9939    1.0000 </r>
       <r>   -6.9938    1.0000 </r>
       <r>   -6.9938    1.0000 </r>
       <r>   -6.9476    1.0000 </r>
       <r>   -6.9352    1.0000 </r>
       <r>   -6.9351    1.0000 </r>
       <r>   -6.9197    1.0000 </r>
       <r>   -6.9192    1.0000 </r>
       <r>   -6.9192    1.0000 </r>
       <r>   -6.9191    1.0000 </r>
       <r>   -6.9190    1.0000 </r>
       <r>   -6.9190    1.0000 </r>
       <r>   -6.9189    1.0000 </r>
       <r>   -6.9189    1.0000 </r>
       <r>   -6.8369    1.0000 </r>
       <r>   -6.8367    1.0000 </r>
       <r>   -6.8366    1.0000 </r>
       <r>   -6.8366    1.0000 </r>
       <r>   -6.8239    1.0000 </r>
       <r>   -6.8181    1.0000 </r>
       <r>   -6.8180    1.0000 </r>
       <r>   -6.7729    1.0000 </r>
       <r>   -6.7726    1.0000 </r>
       <r>   -6.7674    1.0000 </r>
       <r>   -6.7669    1.0000 </r>
       <r>   -6.7668    1.0000 </r>
       <r>   -6.7668    1.0000 </r>
       <r>   -6.7549    1.0000 </r>
       <r>   -6.7547    1.0000 </r>
       <r>   -6.7402    1.0000 </r>
       <r>   -6.7399    1.0000 </r>
       <r>   -6.6845    1.0000 </r>
       <r>   -0.3461    1.0000 </r>
       <r>    0.0938    1.0000 </r>
       <r>    0.0939    1.0000 </r>
       <r>    0.0941    1.0000 </r>
       <r>    0.0943    1.0000 </r>
       <r>    0.0943    1.0000 </r>
       <r>    0.0943    1.0000 </r>
       <r>    0.0944    1.0000 </r>
       <r>    0.0945    1.0000 </r>
       <r>    0.1076    1.0000 </r>
       <r>    0.1078    1.0000 </r>
       <r>    0.1079    1.0000 </r>
       <r>    0.1082    1.0000 </r>
       <r>    0.1520    1.0000 </r>
       <r>    0.1522    1.0000 </r>
       <r>    0.1522    1.0000 </r>
       <r>    0.1524    1.0000 </r>
       <r>    0.1580    1.0000 </r>
       <r>    0.1580    1.0000 </r>
       <r>    0.1596    1.0000 </r>
       <r>    0.1597    1.0000 </r>
       <r>    0.2007    1.0000 </r>
       <r>    0.2009    1.0000 </r>
       <r>    0.2009    1.0000 </r>
       <r>    0.2011    1.0000 </r>
       <r>    0.2365    1.0000 </r>
       <r>    0.2368    1.0000 </r>
       <r>    0.2566    1.0000 </r>
       <r>    0.2570    1.0000 </r>
       <r>    0.2820    1.0000 </r>
       <r>    0.3007    1.0000 </r>
       <r>    0.3009    1.0000 </r>
       <r>    0.3228    1.0000 </r>
       <r>    0.4471    1.0000 </r>
       <r>    0.4473    1.0000 </r>
       <r>    0.4506    1.0000 </r>
       <r>    0.4509    1.0000 </r>
       <r>    0.4572    1.0000 </r>
       <r>    0.4574    1.0000 </r>
       <r>    0.4654    1.0000 </r>
       <r>    0.4656    1.0000 </r>
       <r>    0.4657    1.0000 </r>
       <r>    0.4658    1.0000 </r>
       <r>    0.4698    1.0000 </r>
       <r>    0.4700    1.0000 </r>
       <r>    0.4700    1.0000 </r>
       <r>    0.4703    1.0000 </r>
       <r>    0.5113    1.0000 </r>
       <r>    0.5115    1.0000 </r>
       <r>    0.5261    1.0000 </r>
       <r>    0.5263    1.0000 </r>
       <r>    0.5264    1.0000 </r>
       <r>    0.5265    1.0000 </r>
       <r>    0.5971    1.0000 </r>
       <r>    0.6017    1.0000 </r>
       <r>    0.6548    1.0000 </r>
       <r>    0.6549    1.0000 </r>
       <r>    0.6550    1.0000 </r>
       <r>    0.6552    1.0000 </r>
       <r>    0.6616    1.0000 </r>
       <r>    0.6617    1.0000 </r>
       <r>    0.6877    1.0000 </r>
       <r>    0.6878    1.0000 </r>
       <r>    0.7013    1.0000 </r>
       <r>    0.7018    1.0000 </r>
       <r>    0.7019    1.0000 </r>
       <r>    0.7021    1.0000 </r>
       <r>    0.7206    1.0000 </r>
       <r>    0.7208    1.0000 </r>
       <r>    0.7409    1.0000 </r>
       <r>    0.7412    1.0000 </r>
       <r>    0.7483    1.0000 </r>
       <r>    0.8022    1.0000 </r>
       <r>    0.8141    1.0000 </r>
       <r>    0.8143    1.0000 </r>
       <r>    0.8144    1.0000 </r>
       <r>    0.8147    1.0000 </r>
       <r>    0.8302    1.0000 </r>
       <r>    0.8304    1.0000 </r>
       <r>    0.8305    1.0000 </r>
       <r>    0.8306    1.0000 </r>
       <r>    0.8514    1.0000 </r>
       <r>    0.8519    1.0000 </r>
       <r>    0.8520    1.0000 </r>
       <r>    0.8521    1.0000 </r>
       <r>    0.8521    1.0000 </r>
       <r>    0.8521    1.0000 </r>
       <r>    0.8522    1.0000 </r>
       <r>    0.8525    1.0000 </r>
       <r>    0.8951    1.0000 </r>
       <r>    0.8977    1.0000 </r>
       <r>    0.8978    1.0000 </r>
       <r>    0.8991    1.0000 </r>
       <r>    0.8994    1.0000 </r>
       <r>    0.8994    1.0000 </r>
       <r>    0.8996    1.0000 </r>
       <r>    0.9203    1.0000 </r>
       <r>    0.9455    1.0000 </r>
       <r>    0.9459    1.0000 </r>
       <r>    1.0705    1.0000 </r>
       <r>    1.0708    1.0000 </r>
       <r>    1.0709    1.0000 </r>
       <r>    1.0711    1.0000 </r>
       <r>    1.0843    1.0000 </r>
       <r>    1.0845    1.0000 </r>
       <r>    1.0847    1.0000 </r>
       <r>    1.0849    1.0000 </r>
       <r>    1.0850    1.0000 </r>
       <r>    1.0852    1.0000 </r>
       <r>    1.1006    1.0000 </r>
       <r>    1.1011    1.0000 </r>
       <r>    1.1454    1.0000 </r>
       <r>    1.1458    1.0000 </r>
       <r>    1.1459    1.0000 </r>
       <r>    1.1461    1.0000 </r>
       <r>    1.1616    1.0000 </r>
       <r>    1.1619    1.0000 </r>
       <r>    1.1620    1.0000 </r>
       <r>    1.1622    1.0000 </r>
       <r>    1.1756    1.0000 </r>
       <r>    1.1758    1.0000 </r>
       <r>    1.1995    1.0000 </r>
       <r>    1.2241    1.0000 </r>
       <r>    1.2245    1.0000 </r>
       <r>    1.2292    1.0000 </r>
       <r>    1.2298    1.0000 </r>
       <r>    1.2299    1.0000 </r>
       <r>    1.2299    1.0000 </r>
       <r>    1.2300    1.0000 </r>
       <r>    1.2301    1.0000 </r>
       <r>    1.2302    1.0000 </r>
       <r>    1.2303    1.0000 </r>
       <r>    1.2368    1.0000 </r>
       <r>    1.2372    1.0000 </r>
       <r>    1.3412    1.0000 </r>
       <r>    1.3415    1.0000 </r>
       <r>    1.3416    1.0000 </r>
       <r>    1.3417    1.0000 </r>
       <r>    1.3654    1.0000 </r>
       <r>    1.3663    1.0000 </r>
       <r>    1.3665    1.0000 </r>
       <r>    1.3671    1.0000 </r>
       <r>    1.3673    1.0000 </r>
       <r>    1.3733    1.0000 </r>
       <r>    1.3735    1.0000 </r>
       <r>    1.3735    1.0000 </r>
       <r>    1.3736    1.0000 </r>
       <r>    1.3778    1.0000 </r>
       <r>    1.3781    1.0000 </r>
       <r>    1.3952    1.0000 </r>
       <r>    1.3952    1.0000 </r>
       <r>    1.3954    1.0000 </r>
       <r>    1.3955    1.0000 </r>
       <r>    1.3962    1.0000 </r>
       <r>    1.4058    1.0000 </r>
       <r>    1.4202    1.0000 </r>
       <r>    1.4206    1.0000 </r>
       <r>    1.4365    1.0000 </r>
       <r>    1.4367    1.0000 </r>
       <r>    1.4408    1.0000 </r>
       <r>    1.4462    1.0000 </r>
       <r>    1.4514    1.0000 </r>
       <r>    1.4516    1.0000 </r>
       <r>    1.4570    1.0000 </r>
       <r>    1.4570    1.0000 </r>
       <r>    1.4570    1.0000 </r>
       <r>    1.4571    1.0000 </r>
       <r>    1.4913    1.0000 </r>
       <r>    1.4914    1.0000 </r>
       <r>    1.5272    1.0000 </r>
[...]
       <r>    -1.7758     0.0000    96.0000 </r>
       <r>    -1.7042     0.0000    96.0000 </r>
       <r>    -1.6325     0.0000    96.0000 </r>
       <r>    -1.5608     0.0000    96.0000 </r>
       <r>    -1.4891     0.0000    96.0000 </r>
       <r>    -1.4175     0.0000    96.0000 </r>
       <r>    -1.3458     0.0000    96.0000 </r>
       <r>    -1.2741     0.0000    96.0000 </r>
       <r>    -1.2025     0.0000    96.0000 </r>
       <r>    -1.1308     0.0000    96.0000 </r>
       <r>    -1.0591     0.0000    96.0000 </r>
       <r>    -0.9874     0.0000    96.0000 </r>
       <r>    -0.9158     0.0000    96.0000 </r>
       <r>    -0.8441     0.0000    96.0000 </r>
       <r>    -0.7724     0.0000    96.0000 </r>
       <r>    -0.7008     0.0000    96.0000 </r>
       <r>    -0.6291     0.0000    96.0000 </r>
       <r>    -0.5574     0.0000    96.0000 </r>
       <r>    -0.4858     0.0001    96.0000 </r>
       <r>    -0.4141     0.0949    96.0068 </r>
       <r>    -0.3424     1.7943    96.1354 </r>
       <r>    -0.2707     1.8598    96.2687 </r>
       <r>    -0.1991     8.5150    96.8790 </r>
       <r>    -0.1274    15.3748    97.9809 </r>
       <r>    -0.0557    24.4930    99.7364 </r>
       <r>     0.0159    51.7294   103.4439 </r>
       <r>     0.0876   103.7881   110.8825 </r>
       <r>     0.1593   189.2157   124.4438 </r>
       <r>     0.2310   206.7248   139.2600 </r>
       <r>     0.3026   274.0780   158.9035 </r>
       <r>     0.3743   191.9365   172.6598 </r>
       <r>     0.4460   124.4149   181.5768 </r>
       <r>     0.5176   140.9841   191.6813 </r>
       <r>     0.5893   123.8792   200.5599 </r>
       <r>     0.6610   168.1515   212.6115 </r>
       <r>     0.7327   245.6491   230.2174 </r>
       <r>     0.8043   229.1516   246.6410 </r>
       <r>     0.8760   292.9137   267.6345 </r>
       <r>     0.9477   283.0689   287.9224 </r>
       <r>     1.0193   145.0128   298.3156 </r>
       <r>     1.0910   185.4818   311.6093 </r>
       <r>     1.1627   227.1039   327.8861 </r>
       <r>     1.2344   230.2936   344.3915 </r>
       <r>     1.3060   298.2511   365.7675 </r>
       <r>     1.3777   308.0646   387.8469 </r>
       <r>     1.4494   391.8869   415.9339 </r>
       <r>     1.5210   354.8109   441.3636 </r>
       <r>     1.5927   373.2545   468.1152 </r>
       <r>     1.6644   365.3276   494.2986 </r>
       <r>     1.7361   392.1192   522.4023 </r>
       <r>     1.8077   371.6642   549.0399 </r>
       <r>     1.8794   358.3629   574.7242 </r>
       <r>     1.9511   389.7751   602.6598 </r>
       <r>     2.0227   414.5297   632.3697 </r>
       <r>     2.0944   377.4035   659.4186 </r>
       <r>     2.1661   361.5594   685.3320 </r>
       <r>     2.2378   375.3226   712.2318 </r>
       <r>     2.3094   396.5845   740.6555 </r>
       <r>     2.3811   337.1190   764.8172 </r>
       <r>     2.4528   295.9503   786.0283 </r>
       <r>     2.5244   340.0769   810.4020 </r>
       <r>     2.5961   356.3204   835.9399 </r>
       <r>     2.6678   408.9918   865.2529 </r>
       <r>     2.7395   372.8426   891.9749 </r>
       <r>     2.8111   381.3556   919.3071 </r>
       <r>     2.8828   432.9059   950.3340 </r>
       <r>     2.9545   501.0726   986.2465 </r>
       <r>     3.0261   494.4873  1021.6870 </r>
       <r>     3.0978   364.7083  1047.8260 </r>
       <r>     3.1695   231.5088  1064.4186 </r>
       <r>     3.2412   204.7402  1079.0925 </r>
       <r>     3.3128   169.7369  1091.2578 </r>
       <r>     3.3845   136.6560  1101.0521 </r>
       <r>     3.4562   120.5435  1109.6916 </r>
       <r>     3.5278   158.4411  1121.0472 </r>
       <r>     3.5995   161.6337  1132.6317 </r>
       <r>     3.6712    99.9234  1139.7933 </r>
       <r>     3.7428    96.6909  1146.7233 </r>
       <r>     3.8145    63.9552  1151.3070 </r>
       <r>     3.8862    73.1829  1156.5521 </r>
       <r>     3.9579    72.5604  1161.7526 </r>
       <r>     4.0295    66.3156  1166.5055 </r>
       <r>     4.1012    92.0072  1173.0998 </r>
       <r>     4.1729   105.3100  1180.6475 </r>
       <r>     4.2445   112.6178  1188.7189 </r>
       <r>     4.3162    74.4244  1194.0530 </r>
       <r>     4.3879    73.1252  1199.2940 </r>
       <r>     4.4596    65.5579  1203.9926 </r>
       <r>     4.5312    92.8552  1210.6476 </r>
       <r>     4.6029    93.2270  1217.3293 </r>
       <r>     4.6746   102.9621  1224.7087 </r>
       <r>     4.7462   141.5684  1234.8551 </r>
       <r>     4.8179   135.9261  1244.5971 </r>
       <r>     4.8896    70.5153  1249.6510 </r>
       <r>     4.9613    53.8247  1253.5087 </r>
       <r>     5.0329    55.2141  1257.4660 </r>
       <r>     5.1046    89.3272  1263.8682 </r>
       <r>     5.1763   145.2040  1274.2751 </r>
       <r>     5.2479   105.9376  1281.8678 </r>
       <r>     5.3196    62.2938  1286.3324 </r>
       <r>     5.3913    60.5756  1290.6740 </r>
       <r>     5.4630    68.5286  1295.5855 </r>
       <r>     5.5346    73.1119  1300.8255 </r>
       <r>     5.6063    76.7931  1306.3294 </r>
       <r>     5.6780   112.9954  1314.4279 </r>
       <r>     5.7496   130.0467  1323.7485 </r>
       <r>     5.8213    71.4964  1328.8727 </r>
       <r>     5.8930    64.6170  1333.5039 </r>
       <r>     5.9647    57.3769  1337.6161 </r>
       <r>     6.0363    29.7384  1339.7475 </r>
       <r>     6.1080    18.7104  1341.0885 </r>
       <r>     6.1797    21.6059  1342.6371 </r>
       <r>     6.2513    16.6220  1343.8284 </r>
       <r>     6.3230     8.5452  1344.4408 </r>
       <r>     6.3947     0.8223  1344.4997 </r>
       <r>     6.4664     0.1393  1344.5097 </r>
       <r>     6.5380     1.9730  1344.6511 </r>
       <r>     6.6097     1.7499  1344.7766 </r>
       <r>     6.6814     5.8230  1345.1939 </r>
       <r>     6.7530    23.6475  1346.8887 </r>
       <r>     6.8247    25.5277  1348.7183 </r>
       <r>     6.8964    10.7148  1349.4863 </r>
       <r>     6.9681     6.3242  1349.9395 </r>
       <r>     7.0397     8.9216  1350.5790 </r>
       <r>     7.1114     4.7974  1350.9228 </r>
       <r>     7.1831    22.2746  1352.5192 </r>
       <r>     7.2547    24.0619  1354.2438 </r>
       <r>     7.3264    27.7800  1356.2348 </r>
       <r>     7.3981    32.0589  1358.5325 </r>
       <r>     7.4697    30.0940  1360.6894 </r>
       <r>     7.5414    63.1975  1365.2188 </r>
       <r>     7.6131    69.1538  1370.1752 </r>
       <r>     7.6848    26.4460  1372.0706 </r>
       <r>     7.7564    56.5124  1376.1209 </r>
       <r>     7.8281    69.7163  1381.1175 </r>
       <r>     7.8998    73.1541  1386.3606 </r>
       <r>     7.9714    76.0323  1391.8099 </r>
       <r>     8.0431    64.1503  1396.4076 </r>
       <r>     8.1148    33.7541  1398.8268 </r>
       <r>     8.1865    18.0336  1400.1193 </r>
       <r>     8.2581     7.9390  1400.6883 </r>
       <r>     8.3298    11.5976  1401.5195 </r>
       <r>     8.4015    51.8551  1405.2360 </r>
       <r>     8.4731    32.5976  1407.5724 </r>
       <r>     8.5448    34.1800  1410.0221 </r>
       <r>     8.6165    97.8099  1417.0322 </r>
       <r>     8.6882   102.1534  1424.3537 </r>
       <r>     8.7598    57.9353  1428.5060 </r>
       <r>     8.8315    50.4865  1432.1244 </r>
       <r>     8.9032    33.4830  1434.5242 </r>
       <r>     8.9748    45.9371  1437.8165 </r>
       <r>     9.0465    29.3706  1439.9216 </r>
       <r>     9.1182    21.8244  1441.4857 </r>
       <r>     9.1899    10.0156  1442.2036 </r>
       <r>     9.2615    17.9792  1443.4922 </r>
       <r>     9.3332    54.8925  1447.4264 </r>
       <r>     9.4049    49.1698  1450.9504 </r>
       <r>     9.4765    54.0676  1454.8255 </r>
       <r>     9.5482    37.7456  1457.5308 </r>
       <r>     9.6199    51.3798  1461.2132 </r>
       <r>     9.6916    50.2680  1464.8160 </r>
       <r>     9.7632    47.2005  1468.1989 </r>
       <r>     9.8349    53.9658  1472.0667 </r>
       <r>     9.9066    75.6867  1477.4913 </r>
       <r>     9.9782    56.9793  1481.5750 </r>
       <r>    10.0499   110.7677  1489.5139 </r>
       <r>    10.1216   116.4930  1497.8631 </r>
       <r>    10.1933    39.7359  1500.7110 </r>
       <r>    10.2649    29.6215  1502.8340 </r>
       <r>    10.3366    48.9175  1506.3400 </r>
       <r>    10.4083    58.3206  1510.5199 </r>
       <r>    10.4799    90.7947  1517.0273 </r>
       <r>    10.5516   111.6932  1525.0324 </r>
       <r>    10.6233   110.7627  1532.9709 </r>
       <r>    10.6950    92.7254  1539.6167 </r>
       <r>    10.7666    79.6324  1545.3240 </r>
       <r>    10.8383   108.0039  1553.0648 </r>
       <r>    10.9100    87.6389  1559.3460 </r>
       <r>    10.9816    64.1451  1563.9433 </r>
       <r>    11.0533    33.7138  1566.3596 </r>
       <r>    11.1250    57.4686  1570.4785 </r>
       <r>    11.1967    50.1173  1574.0704 </r>
       <r>    11.2683    46.3733  1577.3941 </r>
       <r>    11.3400    83.5460  1583.3819 </r>
       <r>    11.4117    51.8113  1587.0953 </r>
       <r>    11.4833    56.7600  1591.1633 </r>
       <r>    11.5550    88.9206  1597.5364 </r>
       <r>    11.6267    66.6477  1602.3131 </r>
       <r>    11.6983    44.3031  1605.4884 </r>
       <r>    11.7700    11.1679  1606.2888 </r>
       <r>    11.8417    15.2511  1607.3818 </r>
       <r>    11.9134    36.8750  1610.0247 </r>
       <r>    11.9850    19.7084  1611.4372 </r>
       <r>    12.0567     2.8181  1611.6392 </r>
       <r>    12.1284     4.4906  1611.9611 </r>
       <r>    12.2000     0.5412  1611.9998 </r>
       <r>    12.2717     0.0021  1612.0000 </r>
       <r>    12.3434     0.0000  1612.0000 </r>
       <r>    12.4151     0.0000  1612.0000 </r>
       <r>    12.4867     0.0000  1612.0000 </r>
       <r>    12.5584     0.0000  1612.0000 </r>
       <r>    12.6301     0.0000  1612.0000 </r>
       <r>    12.7017     0.0000  1612.0000 </r>
       <r>    12.7734     0.0000  1612.0000 </r>
       <r>    12.8451     0.0000  1612.0000 </r>
       <r>    12.9168     0.0000  1612.0000 </r>
       <r>    12.9884     0.0000  1612.0000 </r>
       <r>    13.0601     0.0000  1612.0000 </r>
      </set>
     </set>
    </array>
   </total>
  </dos>
 </calculation>
 <structure name="finalpos" >
  <crystal>
   <varray name="basis" >
    <v>      14.01039598       0.00139138       0.00000000 </v>
    <v>      -0.00150196      13.76691092       0.00000000 </v>
    <v>       0.00000000       0.00000000      14.55019386 </v>
   </varray>
   <i name="volume">   2806.43958022 </i>
   <varray name="rec_basis" >
    <v>       0.07137557       0.00000779       0.00000000 </v>
    <v>      -0.00000721       0.07263794       0.00000000 </v>
    <v>       0.00000000       0.00000000       0.06872761 </v>
   </varray>
  </crystal>
  <varray name="positions" >
   <v>       0.42987898       0.17167077       0.33247735 </v>
   <v>       0.92987898       0.17167077       0.33247735 </v>
   <v>       0.42987898       0.67167077       0.33247735 </v>
   <v>       0.92987898       0.67167077       0.33247735 </v>
   <v>       0.42987898       0.17167077       0.66581068 </v>
   <v>       0.92987898       0.17167077       0.66581068 </v>
   <v>       0.42987898       0.67167077       0.66581068 </v>
   <v>       0.92987898       0.67167077       0.66581068 </v>
   <v>       0.42987898       0.17167077       0.99914401 </v>
   <v>       0.92987898       0.17167077       0.99914401 </v>
   <v>       0.42987898       0.67167077       0.99914401 </v>
   <v>       0.92987898       0.67167077       0.99914401 </v>
   <v>       0.07012102       0.32832923       0.33247735 </v>
   <v>       0.57012102       0.32832923       0.33247735 </v>
   <v>       0.07012102       0.82832923       0.33247735 </v>
   <v>       0.57012102       0.82832923       0.33247735 </v>
   <v>       0.07012102       0.32832923       0.66581068 </v>
   <v>       0.57012102       0.32832923       0.66581068 </v>
   <v>       0.07012102       0.82832923       0.66581068 </v>
   <v>       0.57012102       0.82832923       0.66581068 </v>
   <v>       0.07012102       0.32832923       0.99914401 </v>
   <v>       0.57012102       0.32832923       0.99914401 </v>
   <v>       0.07012102       0.82832923       0.99914401 </v>
   <v>       0.57012102       0.82832923       0.99914401 </v>
   <v>       0.32012053       0.42167367       0.05641075 </v>
   <v>       0.82012053       0.42167367       0.05641075 </v>
   <v>       0.32012053       0.92167367       0.05641075 </v>
   <v>       0.82012053       0.92167367       0.05641075 </v>
   <v>       0.32012053       0.42167367       0.38974408 </v>
   <v>       0.82012053       0.42167367       0.38974408 </v>
   <v>       0.32012053       0.92167367       0.38974408 </v>
   <v>       0.82012053       0.92167367       0.38974408 </v>
   <v>       0.32012053       0.42167367       0.72307741 </v>
   <v>       0.82012053       0.42167367       0.72307741 </v>
   <v>       0.32012053       0.92167367       0.72307741 </v>
   <v>       0.82012053       0.92167367       0.72307741 </v>
   <v>       0.17987947       0.07832633       0.05641075 </v>
   <v>       0.67987947       0.07832633       0.05641075 </v>
   <v>       0.17987947       0.57832633       0.05641075 </v>
   <v>       0.67987947       0.57832633       0.05641075 </v>
   <v>       0.17987947       0.07832633       0.38974408 </v>
   <v>       0.67987947       0.07832633       0.38974408 </v>
   <v>       0.17987947       0.57832633       0.38974408 </v>
   <v>       0.67987947       0.57832633       0.38974408 </v>
   <v>       0.17987947       0.07832633       0.72307741 </v>
   <v>       0.67987947       0.07832633       0.72307741 </v>
   <v>       0.17987947       0.57832633       0.72307741 </v>
   <v>       0.67987947       0.57832633       0.72307741 </v>
   <v>       0.17987776       0.32832369       0.16580856 </v>
   <v>       0.67987776       0.32832369       0.16580856 </v>
   <v>       0.17987776       0.82832369       0.16580856 </v>
   <v>       0.67987776       0.82832369       0.16580856 </v>
   <v>       0.17987776       0.32832369       0.49914189 </v>
   <v>       0.67987776       0.32832369       0.49914189 </v>
   <v>       0.17987776       0.82832369       0.49914189 </v>
   <v>       0.67987776       0.82832369       0.49914189 </v>
   <v>       0.17987776       0.32832369       0.83247522 </v>
   <v>       0.67987776       0.32832369       0.83247522 </v>
   <v>       0.17987776       0.82832369       0.83247522 </v>
   <v>       0.67987776       0.82832369       0.83247522 </v>
   <v>       0.32012224       0.17167631       0.16580856 </v>
   <v>       0.82012224       0.17167631       0.16580856 </v>
   <v>       0.32012224       0.67167631       0.16580856 </v>
   <v>       0.82012224       0.67167631       0.16580856 </v>
   <v>       0.32012224       0.17167631       0.49914189 </v>
   <v>       0.82012224       0.17167631       0.49914189 </v>
   <v>       0.32012224       0.67167631       0.49914189 </v>
   <v>       0.82012224       0.67167631       0.49914189 </v>
   <v>       0.32012224       0.17167631       0.83247522 </v>
   <v>       0.82012224       0.17167631       0.83247522 </v>
   <v>       0.32012224       0.67167631       0.83247522 </v>
   <v>       0.82012224       0.67167631       0.83247522 </v>
   <v>       0.42987656       0.42167494       0.22308000 </v>
   <v>       0.92987656       0.42167494       0.22308000 </v>
   <v>       0.42987656       0.92167494       0.22308000 </v>
   <v>       0.92987656       0.92167494       0.22308000 </v>
   <v>       0.42987656       0.42167494       0.55641333 </v>
   <v>       0.92987656       0.42167494       0.55641333 </v>
   <v>       0.42987656       0.92167494       0.55641333 </v>
   <v>       0.92987656       0.92167494       0.55641333 </v>
   <v>       0.42987656       0.42167494       0.88974666 </v>
   <v>       0.92987656       0.42167494       0.88974666 </v>
   <v>       0.42987656       0.92167494       0.88974666 </v>
   <v>       0.92987656       0.92167494       0.88974666 </v>
   <v>       0.07012344       0.07832506       0.22308000 </v>
   <v>       0.57012344       0.07832506       0.22308000 </v>
   <v>       0.07012344       0.57832506       0.22308000 </v>
   <v>       0.57012344       0.57832506       0.22308000 </v>
   <v>       0.07012344       0.07832506       0.55641333 </v>
   <v>       0.57012344       0.07832506       0.55641333 </v>
   <v>       0.07012344       0.57832506       0.55641333 </v>
   <v>       0.57012344       0.57832506       0.55641333 </v>
   <v>       0.07012344       0.07832506       0.88974666 </v>
   <v>       0.57012344       0.07832506       0.88974666 </v>
   <v>       0.07012344       0.57832506       0.88974666 </v>
   <v>       0.57012344       0.57832506       0.88974666 </v>
   <v>       0.00000000       0.00000000       0.05479365 </v>
   <v>       0.50000000       0.00000000       0.05479365 </v>
   <v>       0.00000000       0.50000000       0.05479365 </v>
   <v>       0.50000000       0.50000000       0.05479365 </v>
   <v>       0.00000000       0.00000000       0.38812698 </v>
   <v>       0.50000000       0.00000000       0.38812698 </v>
   <v>       0.00000000       0.50000000       0.38812698 </v>
   <v>       0.50000000       0.50000000       0.38812698 </v>
   <v>       0.00000000       0.00000000       0.72146032 </v>
   <v>       0.50000000       0.00000000       0.72146032 </v>
   <v>       0.00000000       0.50000000       0.72146032 </v>
   <v>       0.50000000       0.50000000       0.72146032 </v>
   <v>       0.25000000       0.00000000       0.22145206 </v>
   <v>       0.75000000       0.00000000       0.22145206 </v>
   <v>       0.25000000       0.50000000       0.22145206 </v>
   <v>       0.75000000       0.50000000       0.22145206 </v>
   <v>       0.25000000       0.00000000       0.55478539 </v>
   <v>       0.75000000       0.00000000       0.55478539 </v>
   <v>       0.25000000       0.50000000       0.55478539 </v>
   <v>       0.75000000       0.50000000       0.55478539 </v>
   <v>       0.25000000       0.00000000       0.88811873 </v>
   <v>       0.75000000       0.00000000       0.88811873 </v>
   <v>       0.25000000       0.50000000       0.88811873 </v>
   <v>       0.75000000       0.50000000       0.88811873 </v>
   <v>       0.00000000       0.25000000       0.16743769 </v>
   <v>       0.50000000       0.25000000       0.16743769 </v>
   <v>       0.00000000       0.75000000       0.16743769 </v>
   <v>       0.50000000       0.75000000       0.16743769 </v>
   <v>       0.00000000       0.25000000       0.50077102 </v>
   <v>       0.50000000       0.25000000       0.50077102 </v>
   <v>       0.00000000       0.75000000       0.50077102 </v>
   <v>       0.50000000       0.75000000       0.50077102 </v>
   <v>       0.00000000       0.25000000       0.83410435 </v>
   <v>       0.50000000       0.25000000       0.83410435 </v>
   <v>       0.00000000       0.75000000       0.83410435 </v>
   <v>       0.50000000       0.75000000       0.83410435 </v>
   <v>       0.25049507       0.25000000       0.00125839 </v>
   <v>       0.75000000       0.25000000       0.00076332 </v>
   <v>       0.25000000       0.75000000       0.00076332 </v>
   <v>       0.75000000       0.75000000       0.00076332 </v>
   <v>       0.25000000       0.25000000       0.33409665 </v>
   <v>       0.75000000       0.25000000       0.33409665 </v>
   <v>       0.25000000       0.75000000       0.33409665 </v>
   <v>       0.75000000       0.75000000       0.33409665 </v>
   <v>       0.25000000       0.25000000       0.66742999 </v>
   <v>       0.75000000       0.25000000       0.66742999 </v>
   <v>       0.25000000       0.75000000       0.66742999 </v>
   <v>       0.75000000       0.75000000       0.66742999 </v>
  </varray>
 </structure>
</modeling>
