  12  12   0   0
  0.1948916E+02  0.7005198E-09  0.6883456E-09  0.4850065E-09  0.5000000E-15
  1.000000000000000E-004
  CAR 
 unknown system                          
     17.90961861     -8.67213958  301      6.26446159      1.00000000
     -8.672  0.0000E+00  0.0000E+00
     -8.584  0.0000E+00  0.0000E+00
     -8.495  0.0000E+00  0.0000E+00
     -8.406  0.0000E+00  0.0000E+00
     -8.318  0.0000E+00  0.0000E+00
     -8.229  0.0000E+00  0.0000E+00
     -8.141  0.0000E+00  0.0000E+00
     -8.052  0.0000E+00  0.0000E+00
     -7.963  0.0000E+00  0.0000E+00
     -7.875  0.0000E+00  0.0000E+00
     -7.786  0.0000E+00  0.0000E+00
     -7.697  0.4607E-11  0.4082E-12
     -7.609  0.4837E-05  0.4286E-06
     -7.520  0.1323E-01  0.1173E-02
     -7.432  0.3593E+00  0.3301E-01
     -7.343  0.1943E+01  0.2051E+00
     -7.254  0.3327E+01  0.4999E+00
     -7.166  0.4306E+01  0.8815E+00
     -7.077  0.8177E+01  0.1606E+01
     -6.989  0.1187E+02  0.2658E+01
     -6.900  0.1784E+02  0.4238E+01
     -6.811  0.2028E+02  0.6035E+01
     -6.723  0.1850E+02  0.7675E+01
     -6.634  0.3611E+01  0.7995E+01
     -6.546  0.5778E-01  0.8000E+01
     -6.457  0.1477E-04  0.8000E+01
     -6.368  0.1648E-10  0.8000E+01
     -6.280  0.0000E+00  0.8000E+01
     -6.191  0.0000E+00  0.8000E+01
     -6.103  0.0000E+00  0.8000E+01
     -6.014  0.0000E+00  0.8000E+01
     -5.925  0.0000E+00  0.8000E+01
     -5.837  0.0000E+00  0.8000E+01
     -5.748  0.0000E+00  0.8000E+01
     -5.660  0.0000E+00  0.8000E+01
     -5.571  0.0000E+00  0.8000E+01
     -5.482  0.0000E+00  0.8000E+01
     -5.394  0.0000E+00  0.8000E+01
     -5.305  0.0000E+00  0.8000E+01
     -5.217  0.0000E+00  0.8000E+01
     -5.128  0.0000E+00  0.8000E+01
     -5.039  0.0000E+00  0.8000E+01
     -4.951  0.0000E+00  0.8000E+01
     -4.862  0.0000E+00  0.8000E+01
     -4.773  0.0000E+00  0.8000E+01
     -4.685  0.0000E+00  0.8000E+01
     -4.596  0.0000E+00  0.8000E+01
     -4.508  0.0000E+00  0.8000E+01
     -4.419  0.0000E+00  0.8000E+01
     -4.330  0.0000E+00  0.8000E+01
     -4.242  0.0000E+00  0.8000E+01
     -4.153  0.0000E+00  0.8000E+01
     -4.065  0.0000E+00  0.8000E+01
     -3.976  0.0000E+00  0.8000E+01
     -3.887  0.0000E+00  0.8000E+01
     -3.799  0.0000E+00  0.8000E+01
     -3.710  0.0000E+00  0.8000E+01
     -3.622  0.0000E+00  0.8000E+01
     -3.533  0.0000E+00  0.8000E+01
     -3.444  0.0000E+00  0.8000E+01
     -3.356  0.0000E+00  0.8000E+01
     -3.267  0.0000E+00  0.8000E+01
     -3.179  0.0000E+00  0.8000E+01
     -3.090  0.0000E+00  0.8000E+01
     -3.001  0.0000E+00  0.8000E+01
     -2.913  0.0000E+00  0.8000E+01
     -2.824  0.0000E+00  0.8000E+01
     -2.736  0.0000E+00  0.8000E+01
     -2.647  0.0000E+00  0.8000E+01
     -2.558  0.0000E+00  0.8000E+01
     -2.470  0.0000E+00  0.8000E+01
     -2.381  0.0000E+00  0.8000E+01
     -2.293  0.0000E+00  0.8000E+01
     -2.204  0.0000E+00  0.8000E+01
     -2.115  0.0000E+00  0.8000E+01
     -2.027  0.0000E+00  0.8000E+01
     -1.938  0.0000E+00  0.8000E+01
     -1.849  0.0000E+00  0.8000E+01
     -1.761  0.0000E+00  0.8000E+01
     -1.672  0.0000E+00  0.8000E+01
     -1.584  0.0000E+00  0.8000E+01
     -1.495  0.0000E+00  0.8000E+01
     -1.406  0.0000E+00  0.8000E+01
     -1.318  0.0000E+00  0.8000E+01
     -1.229  0.0000E+00  0.8000E+01
     -1.141  0.0000E+00  0.8000E+01
     -1.052  0.0000E+00  0.8000E+01
     -0.963  0.0000E+00  0.8000E+01
     -0.875  0.0000E+00  0.8000E+01
     -0.786  0.0000E+00  0.8000E+01
     -0.698  0.0000E+00  0.8000E+01
     -0.609  0.1213E-13  0.8000E+01
     -0.520  0.9635E-07  0.8000E+01
     -0.432  0.1802E-02  0.8000E+01
     -0.343  0.1234E+00  0.8011E+01
     -0.255  0.1688E+00  0.8026E+01
     -0.166  0.1042E+01  0.8118E+01
     -0.077  0.1526E+01  0.8254E+01
      0.011  0.3836E+01  0.8594E+01
      0.100  0.9235E+01  0.9412E+01
      0.188  0.1593E+02  0.1082E+02
      0.277  0.2095E+02  0.1268E+02
      0.366  0.1799E+02  0.1427E+02
      0.454  0.1069E+02  0.1522E+02
      0.543  0.1158E+02  0.1625E+02
      0.631  0.1099E+02  0.1722E+02
      0.720  0.1922E+02  0.1892E+02
      0.809  0.1940E+02  0.2064E+02
      0.897  0.2504E+02  0.2286E+02
      0.986  0.1866E+02  0.2452E+02
      1.075  0.1313E+02  0.2568E+02
      1.163  0.1865E+02  0.2733E+02
      1.252  0.2015E+02  0.2912E+02
      1.340  0.2466E+02  0.3130E+02
      1.429  0.3037E+02  0.3399E+02
      1.518  0.3029E+02  0.3668E+02
      1.606  0.3105E+02  0.3943E+02
      1.695  0.3083E+02  0.4216E+02
      1.783  0.3229E+02  0.4502E+02
      1.872  0.2985E+02  0.4766E+02
      1.961  0.3251E+02  0.5055E+02
      2.049  0.3400E+02  0.5356E+02
      2.138  0.3025E+02  0.5624E+02
      2.226  0.3104E+02  0.5899E+02
      2.315  0.3271E+02  0.6189E+02
      2.404  0.2736E+02  0.6431E+02
      2.492  0.2583E+02  0.6660E+02
      2.581  0.2902E+02  0.6917E+02
      2.669  0.3372E+02  0.7216E+02
      2.758  0.3074E+02  0.7488E+02
      2.847  0.3370E+02  0.7787E+02
      2.935  0.3924E+02  0.8135E+02
      3.024  0.4186E+02  0.8506E+02
      3.112  0.2923E+02  0.8765E+02
      3.201  0.1812E+02  0.8925E+02
      3.290  0.1553E+02  0.9063E+02
      3.378  0.1208E+02  0.9170E+02
      3.467  0.1023E+02  0.9260E+02
      3.555  0.1384E+02  0.9383E+02
      3.644  0.1069E+02  0.9478E+02
      3.733  0.7948E+01  0.9548E+02
      3.821  0.5553E+01  0.9597E+02
      3.910  0.6367E+01  0.9654E+02
      3.998  0.5309E+01  0.9701E+02
      4.087  0.7371E+01  0.9766E+02
      4.176  0.8553E+01  0.9842E+02
      4.264  0.8755E+01  0.9920E+02
      4.353  0.5926E+01  0.9972E+02
      4.442  0.5689E+01  0.1002E+03
      4.530  0.7380E+01  0.1009E+03
      4.619  0.7842E+01  0.1016E+03
      4.707  0.9304E+01  0.1024E+03
      4.796  0.1251E+02  0.1035E+03
      4.885  0.6886E+01  0.1041E+03
      4.973  0.4499E+01  0.1045E+03
      5.062  0.5044E+01  0.1050E+03
      5.150  0.1011E+02  0.1059E+03
      5.239  0.1026E+02  0.1068E+03
      5.328  0.5190E+01  0.1072E+03
      5.416  0.5541E+01  0.1077E+03
      5.505  0.5550E+01  0.1082E+03
      5.593  0.6365E+01  0.1088E+03
      5.682  0.9153E+01  0.1096E+03
      5.771  0.9852E+01  0.1105E+03
      5.859  0.5437E+01  0.1109E+03
      5.948  0.5254E+01  0.1114E+03
      6.036  0.2716E+01  0.1116E+03
      6.125  0.1584E+01  0.1118E+03
      6.214  0.1705E+01  0.1119E+03
      6.302  0.1035E+01  0.1120E+03
      6.391  0.1425E+00  0.1120E+03
      6.479  0.1986E-01  0.1120E+03
      6.568  0.1866E+00  0.1121E+03
      6.657  0.2207E+00  0.1121E+03
      6.745  0.1603E+01  0.1122E+03
      6.834  0.2085E+01  0.1124E+03
      6.922  0.7297E+00  0.1125E+03
      7.011  0.6502E+00  0.1125E+03
      7.100  0.4614E+00  0.1126E+03
      7.188  0.1714E+01  0.1127E+03
      7.277  0.2140E+01  0.1129E+03
      7.366  0.2235E+01  0.1131E+03
      7.454  0.2746E+01  0.1134E+03
      7.543  0.4807E+01  0.1138E+03
      7.631  0.5076E+01  0.1142E+03
      7.720  0.2747E+01  0.1145E+03
      7.809  0.5700E+01  0.1150E+03
      7.897  0.6077E+01  0.1155E+03
      7.986  0.6402E+01  0.1161E+03
      8.074  0.4303E+01  0.1165E+03
      8.163  0.2097E+01  0.1166E+03
      8.252  0.8170E+00  0.1167E+03
      8.340  0.1165E+01  0.1168E+03
      8.429  0.4272E+01  0.1172E+03
      8.517  0.2084E+01  0.1174E+03
      8.606  0.6699E+01  0.1180E+03
      8.695  0.8484E+01  0.1187E+03
      8.783  0.4752E+01  0.1192E+03
      8.872  0.3361E+01  0.1195E+03
      8.960  0.3549E+01  0.1198E+03
      9.049  0.2615E+01  0.1200E+03
      9.138  0.1641E+01  0.1201E+03
      9.226  0.8465E+00  0.1202E+03
      9.315  0.3460E+01  0.1205E+03
      9.403  0.4301E+01  0.1209E+03
      9.492  0.4340E+01  0.1213E+03
      9.581  0.3387E+01  0.1216E+03
      9.669  0.4273E+01  0.1220E+03
      9.758  0.4081E+01  0.1223E+03
      9.846  0.4687E+01  0.1227E+03
      9.935  0.5619E+01  0.1232E+03
     10.024  0.6902E+01  0.1239E+03
     10.112  0.1016E+02  0.1248E+03
     10.201  0.3582E+01  0.1251E+03
     10.290  0.2963E+01  0.1253E+03
     10.378  0.4029E+01  0.1257E+03
     10.467  0.7081E+01  0.1263E+03
     10.555  0.9081E+01  0.1271E+03
     10.644  0.9013E+01  0.1279E+03
     10.733  0.6810E+01  0.1285E+03
     10.821  0.8337E+01  0.1293E+03
     10.910  0.7658E+01  0.1299E+03
     10.998  0.5055E+01  0.1304E+03
     11.087  0.3028E+01  0.1307E+03
     11.176  0.4972E+01  0.1311E+03
     11.264  0.3674E+01  0.1314E+03
     11.353  0.6672E+01  0.1320E+03
     11.441  0.4027E+01  0.1324E+03
     11.530  0.6701E+01  0.1330E+03
     11.619  0.6417E+01  0.1335E+03
     11.707  0.3934E+01  0.1339E+03
     11.796  0.1478E+01  0.1340E+03
     11.884  0.4710E+01  0.1344E+03
     11.973  0.4508E+01  0.1348E+03
     12.062  0.2715E+01  0.1351E+03
     12.150  0.4891E+01  0.1355E+03
     12.239  0.6450E+01  0.1361E+03
     12.327  0.5389E+01  0.1366E+03
     12.416  0.4777E+01  0.1370E+03
     12.505  0.4328E+01  0.1374E+03
     12.593  0.4822E+01  0.1378E+03
     12.682  0.5627E+01  0.1383E+03
     12.770  0.7115E+01  0.1389E+03
     12.859  0.3462E+01  0.1392E+03
     12.948  0.3531E+01  0.1395E+03
     13.036  0.4909E+01  0.1400E+03
     13.125  0.3103E+01  0.1402E+03
     13.214  0.6155E+01  0.1408E+03
     13.302  0.2844E+01  0.1410E+03
     13.391  0.6310E+01  0.1416E+03
     13.479  0.8351E+01  0.1423E+03
     13.568  0.6092E+01  0.1429E+03
     13.657  0.5435E+01  0.1434E+03
     13.745  0.3228E+01  0.1437E+03
     13.834  0.6758E+01  0.1443E+03
     13.922  0.7259E+01  0.1449E+03
     14.011  0.5782E+01  0.1454E+03
     14.100  0.4705E+01  0.1458E+03
     14.188  0.3266E+01  0.1461E+03
     14.277  0.6640E+01  0.1467E+03
     14.365  0.9026E+01  0.1475E+03
     14.454  0.9577E+01  0.1483E+03
     14.543  0.5843E+01  0.1489E+03
     14.631  0.6715E+01  0.1495E+03
     14.720  0.1027E+02  0.1504E+03
     14.808  0.6532E+01  0.1510E+03
     14.897  0.7235E+01  0.1516E+03
     14.986  0.1133E+02  0.1526E+03
     15.074  0.5045E+01  0.1530E+03
     15.163  0.4590E+01  0.1535E+03
     15.251  0.5925E+01  0.1540E+03
     15.340  0.6564E+01  0.1546E+03
     15.429  0.4212E+01  0.1549E+03
     15.517  0.6164E+01  0.1555E+03
     15.606  0.9480E+01  0.1563E+03
     15.694  0.3666E+01  0.1566E+03
     15.783  0.3147E+01  0.1569E+03
     15.872  0.6518E+01  0.1575E+03
     15.960  0.6283E+01  0.1581E+03
     16.049  0.7388E+01  0.1587E+03
     16.138  0.2996E+01  0.1590E+03
     16.226  0.2264E+01  0.1592E+03
     16.315  0.2498E+01  0.1594E+03
     16.403  0.3666E+01  0.1597E+03
     16.492  0.1371E+01  0.1598E+03
     16.581  0.5900E+00  0.1599E+03
     16.669  0.7664E+00  0.1600E+03
     16.758  0.3945E+00  0.1600E+03
     16.846  0.2600E-01  0.1600E+03
     16.935  0.9640E-05  0.1600E+03
     17.024  0.9164E-11  0.1600E+03
     17.112  0.0000E+00  0.1600E+03
     17.201  0.0000E+00  0.1600E+03
     17.289  0.0000E+00  0.1600E+03
     17.378  0.0000E+00  0.1600E+03
     17.467  0.0000E+00  0.1600E+03
     17.555  0.0000E+00  0.1600E+03
     17.644  0.0000E+00  0.1600E+03
     17.732  0.0000E+00  0.1600E+03
     17.821  0.0000E+00  0.1600E+03
     17.910  0.0000E+00  0.1600E+03
