   12   12    1    1
  0.1948916E+02  0.7005198E-09  0.6883456E-09  0.4850065E-09  0.5000000E-15
  1.000000000000000E-004
  CAR 
 unknown system                          
    112     52     80
 
  0.0000000E+00  0.0000000E+00  0.0000000E+00  0.1041667E-01
    1       -7.463878   1.000000
    2       -6.947590   1.000000
    3       -6.823840   1.000000
    4       -6.684413   1.000000
    5       -0.346075   1.000000
    6        0.282073   1.000000
    7        0.322879   1.000000
    8        0.597149   1.000000
    9        0.601703   1.000000
   10        0.748476   1.000000
   11        0.802177   1.000000
   12        0.895061   1.000000
   13        0.920392   1.000000
   14        1.199641   1.000000
   15        1.365322   1.000000
   16        1.396210   1.000000
   17        1.405976   1.000000
   18        1.440803   1.000000
   19        1.446048   1.000000
   20        1.530581   1.000000
   21        1.768570   1.000000
   22        1.793434   1.000000
   23        1.906829   1.000000
   24        1.911583   1.000000
   25        1.944645   1.000000
   26        2.066002   1.000000
   27        2.091796   1.000000
   28        2.167302   1.000000
   29        2.169185   1.000000
   30        2.174482   1.000000
   31        2.184663   1.000000
   32        2.231760   1.000000
   33        2.329679   1.000000
   34        2.438176   1.000000
   35        2.518369   1.000000
   36        2.746732   1.000000
   37        2.756324   1.000000
   38        2.823891   1.000000
   39        2.874936   1.000000
   40        2.879780   1.000000
   41        2.937087   1.000000
   42        2.996741   1.000000
   43        3.018613   1.000000
   44        3.038871   1.000000
   45        3.040232   1.000000
   46        3.290495   1.000000
   47        3.735769   1.000000
   48        4.191666   1.000000
   49        4.352832   1.000000
   50        4.657696   1.000000
   51        4.747058   1.000000
   52        5.227430   1.000000
   53        5.798134   1.000000
   54        5.871503   1.000000
   55        5.946364   1.000000
   56        6.220503   0.893134
   57        6.528459   0.000000
   58        6.653626   0.000000
   59        6.722838   0.000000
   60        7.395121   0.000000
   61        7.976869   0.000000
   62        9.194785   0.000000
   63       10.651031   0.000000
   64       10.852874   0.000000
   65       11.189492   0.000000
   66       11.779027   0.000000
   67       11.914157   0.000000
   68       12.607336   0.000000
   69       12.669369   0.000000
   70       13.426721   0.000000
   71       13.963496   0.000000
   72       14.000302   0.000000
   73       14.278886   0.000000
   74       14.415112   0.000000
   75       14.608997   0.000000
   76       14.786398   0.000000
   77       14.786715   0.000000
   78       15.161040   0.000000
   79       15.179836   0.000000
   80       15.475527   0.000000
 
  0.2500000E+00 -0.6776264E-20  0.0000000E+00  0.2083333E-01
    1       -7.393058   1.000000
    2       -7.028367   1.000000
    3       -6.803714   1.000000
    4       -6.705129   1.000000
    5       -0.200616   1.000000
    6        0.269600   1.000000
    7        0.276982   1.000000
    8        0.486674   1.000000
    9        0.627238   1.000000
   10        0.742124   1.000000
   11        0.849863   1.000000
   12        0.868651   1.000000
   13        0.904524   1.000000
   14        1.245522   1.000000
   15        1.266535   1.000000
   16        1.302351   1.000000
   17        1.302377   1.000000
   18        1.430911   1.000000
   19        1.489933   1.000000
   20        1.499179   1.000000
   21        1.758774   1.000000
   22        1.795502   1.000000
   23        1.835303   1.000000
   24        1.903406   1.000000
   25        1.931592   1.000000
   26        1.959960   1.000000
   27        2.094747   1.000000
   28        2.117734   1.000000
   29        2.163711   1.000000
   30        2.186129   1.000000
   31        2.351265   1.000000
   32        2.406119   1.000000
   33        2.487193   1.000000
   34        2.558289   1.000000
   35        2.572869   1.000000
   36        2.686192   1.000000
   37        2.717230   1.000000
   38        2.819404   1.000000
   39        2.860948   1.000000
   40        2.933464   1.000000
   41        2.952801   1.000000
   42        2.965623   1.000000
   43        3.015313   1.000000
   44        3.068531   1.000000
   45        3.197376   1.000000
   46        3.269920   1.000000
   47        3.851098   1.000000
   48        4.010081   1.000000
   49        4.088531   1.000000
   50        4.389295   1.000000
   51        4.781412   1.000000
   52        5.089878   1.000000
   53        5.592401   1.000000
   54        5.834419   1.000000
   55        5.959721   1.000000
   56        6.130367   0.999926
   57        6.721858   0.000000
   58        6.799701   0.000000
   59        7.542535   0.000000
   60        8.035821   0.000000
   61        8.219727   0.000000
   62        9.594746   0.000000
   63       10.226804   0.000000
   64       10.408336   0.000000
   65       10.793048   0.000000
   66       11.323143   0.000000
   67       12.034523   0.000000
   68       12.076861   0.000000
   69       12.504954   0.000000
   70       12.948286   0.000000
   71       13.118367   0.000000
   72       13.325036   0.000000
   73       13.653616   0.000000
   74       13.729916   0.000000
   75       14.520704   0.000000
   76       14.838653   0.000000
   77       15.430659   0.000000
   78       15.436967   0.000000
   79       15.496357   0.000000
   80       16.518126   0.000000
 
  0.5000000E+00 -0.1355253E-19  0.0000000E+00  0.1041667E-01
    1       -7.215673   1.000000
    2       -7.215673   1.000000
    3       -6.754716   1.000000
    4       -6.754713   1.000000
    5        0.159601   1.000000
    6        0.159624   1.000000
    7        0.236709   1.000000
    8        0.236715   1.000000
    9        0.720713   1.000000
   10        0.720737   1.000000
   11        0.897748   1.000000
   12        0.897774   1.000000
   13        0.945903   1.000000
   14        0.945929   1.000000
   15        1.224198   1.000000
   16        1.224237   1.000000
   17        1.436615   1.000000
   18        1.436644   1.000000
   19        1.451615   1.000000
   20        1.451645   1.000000
   21        1.718282   1.000000
   22        1.718302   1.000000
   23        1.832640   1.000000
   24        1.832674   1.000000
   25        2.022010   1.000000
   26        2.022028   1.000000
   27        2.030073   1.000000
   28        2.030075   1.000000
   29        2.212281   1.000000
   30        2.212303   1.000000
   31        2.544110   1.000000
   32        2.544117   1.000000
   33        2.655334   1.000000
   34        2.655357   1.000000
   35        2.703632   1.000000
   36        2.703634   1.000000
   37        2.746875   1.000000
   38        2.746882   1.000000
   39        2.849961   1.000000
   40        2.849980   1.000000
   41        2.851517   1.000000
   42        2.851520   1.000000
   43        3.007865   1.000000
   44        3.007878   1.000000
   45        3.444325   1.000000
   46        3.444343   1.000000
   47        3.561499   1.000000
   48        3.561501   1.000000
   49        4.622558   1.000000
   50        4.622601   1.000000
   51        4.753446   1.000000
   52        4.753451   1.000000
   53        5.226764   1.000000
   54        5.226767   1.000000
   55        6.164614   0.997630
   56        6.164622   0.997628
   57        7.019701   0.000000
   58        7.019705   0.000000
   59        8.520481   0.000000
   60        8.520523   0.000000
   61        9.284547   0.000000
   62        9.284607   0.000000
   63        9.807013   0.000000
   64        9.807017   0.000000
   65       10.646279   0.000000
   66       10.646300   0.000000
   67       11.823214   0.000000
   68       11.823320   0.000000
   69       12.264944   0.000000
   70       12.264948   0.000000
   71       12.697001   0.000000
   72       12.697013   0.000000
   73       13.726921   0.000000
   74       13.726952   0.000000
   75       14.247558   0.000000
   76       14.247580   0.000000
   77       15.352908   0.000000
   78       15.352949   0.000000
   79       16.701301   0.000000
   80       16.701357   0.000000
 
  0.0000000E+00  0.2500000E+00  0.0000000E+00  0.2083333E-01
    1       -7.379659   1.000000
    2       -6.928675   1.000000
    3       -6.910046   1.000000
    4       -6.723961   1.000000
    5       -0.196758   1.000000
    6        0.360345   1.000000
    7        0.371773   1.000000
    8        0.537186   1.000000
    9        0.564462   1.000000
   10        0.634724   1.000000
   11        0.806032   1.000000
   12        0.870047   1.000000
   13        0.900880   1.000000
   14        1.224488   1.000000
   15        1.283735   1.000000
   16        1.287091   1.000000
   17        1.326495   1.000000
   18        1.479059   1.000000
   19        1.604757   1.000000
   20        1.655457   1.000000
   21        1.699979   1.000000
   22        1.732531   1.000000
   23        1.894920   1.000000
   24        1.902878   1.000000
   25        1.931705   1.000000
   26        1.973142   1.000000
   27        2.039186   1.000000
   28        2.047762   1.000000
   29        2.143854   1.000000
   30        2.256681   1.000000
   31        2.318200   1.000000
   32        2.362014   1.000000
   33        2.391535   1.000000
   34        2.412609   1.000000
   35        2.606057   1.000000
   36        2.766507   1.000000
   37        2.789899   1.000000
   38        2.821981   1.000000
   39        2.883154   1.000000
   40        2.901510   1.000000
   41        2.954197   1.000000
   42        2.962515   1.000000
   43        3.004822   1.000000
   44        3.036912   1.000000
   45        3.266659   1.000000
   46        3.318683   1.000000
   47        3.530650   1.000000
   48        3.934143   1.000000
   49        4.220193   1.000000
   50        4.402307   1.000000
   51        4.538241   1.000000
   52        5.140844   1.000000
   53        5.829238   1.000000
   54        5.945854   1.000000
   55        6.025353   1.000000
   56        6.240220   0.753538
   57        6.705629   0.000000
   58        6.749398   0.000000
   59        7.486865   0.000000
   60        7.673372   0.000000
   61        8.014210   0.000000
   62       10.008506   0.000000
   63       10.309831   0.000000
   64       10.588659   0.000000
   65       10.757362   0.000000
   66       11.218012   0.000000
   67       11.852130   0.000000
   68       12.113859   0.000000
   69       12.155596   0.000000
   70       13.247448   0.000000
   71       13.381722   0.000000
   72       13.609506   0.000000
   73       13.934224   0.000000
   74       14.010477   0.000000
   75       14.778908   0.000000
   76       15.211232   0.000000
   77       15.469934   0.000000
   78       15.636626   0.000000
   79       15.749896   0.000000
   80       15.806758   0.000000
 
  0.2500000E+00  0.2500000E+00  0.0000000E+00  0.2083333E-01
    1       -7.314516   1.000000
    2       -6.982650   1.000000
    3       -6.898920   1.000000
    4       -6.754137   1.000000
    5       -0.104242   1.000000
    6        0.255497   1.000000
    7        0.315533   1.000000
    8        0.420139   1.000000
    9        0.640725   1.000000
   10        0.655676   1.000000
   11        0.844335   1.000000
   12        0.886495   1.000000
   13        0.943010   1.000000
   14        1.152114   1.000000
   15        1.248960   1.000000
   16        1.290106   1.000000
   17        1.379740   1.000000
   18        1.445796   1.000000
   19        1.531166   1.000000
   20        1.541638   1.000000
   21        1.661582   1.000000
   22        1.703637   1.000000
   23        1.821946   1.000000
   24        1.895512   1.000000
   25        1.940579   1.000000
   26        1.979049   1.000000
   27        2.058508   1.000000
   28        2.215571   1.000000
   29        2.238696   1.000000
   30        2.291856   1.000000
   31        2.334708   1.000000
   32        2.420938   1.000000
   33        2.500755   1.000000
   34        2.547294   1.000000
   35        2.605650   1.000000
   36        2.636069   1.000000
   37        2.700331   1.000000
   38        2.832206   1.000000
   39        2.840282   1.000000
   40        2.888416   1.000000
   41        2.902043   1.000000
   42        2.983495   1.000000
   43        2.998955   1.000000
   44        3.069918   1.000000
   45        3.336955   1.000000
   46        3.386573   1.000000
   47        3.665803   1.000000
   48        3.871411   1.000000
   49        4.274920   1.000000
   50        4.489974   1.000000
   51        4.566695   1.000000
   52        5.060667   1.000000
   53        5.391962   1.000000
   54        5.660756   1.000000
   55        5.744371   1.000000
   56        5.808740   1.000000
   57        7.294781   0.000000
   58        7.562602   0.000000
   59        7.643408   0.000000
   60        7.930970   0.000000
   61        8.579087   0.000000
   62       10.085670   0.000000
   63       10.122484   0.000000
   64       10.302849   0.000000
   65       10.545440   0.000000
   66       10.803573   0.000000
   67       11.838028   0.000000
   68       11.895928   0.000000
   69       12.420814   0.000000
   70       12.532097   0.000000
   71       13.053162   0.000000
   72       13.394282   0.000000
   73       13.534768   0.000000
   74       14.170719   0.000000
   75       14.359573   0.000000
   76       14.901531   0.000000
   77       15.120258   0.000000
   78       15.204322   0.000000
   79       15.769165   0.000000
   80       15.843164   0.000000
 
  0.5000000E+00  0.2500000E+00  0.0000000E+00  0.2083333E-01
    1       -7.152325   1.000000
    2       -7.152323   1.000000
    3       -6.826745   1.000000
    4       -6.826742   1.000000
    5        0.140279   1.000000
    6        0.140304   1.000000
    7        0.212379   1.000000
    8        0.212391   1.000000
    9        0.767858   1.000000
   10        0.767886   1.000000
   11        0.831343   1.000000
   12        0.831376   1.000000
   13        1.046552   1.000000
   14        1.046581   1.000000
   15        1.229637   1.000000
   16        1.229664   1.000000
   17        1.439933   1.000000
   18        1.439958   1.000000
   19        1.451670   1.000000
   20        1.451693   1.000000
   21        1.677616   1.000000
   22        1.677636   1.000000
   23        1.762342   1.000000
   24        1.762370   1.000000
   25        2.089464   1.000000
   26        2.089473   1.000000
   27        2.111685   1.000000
   28        2.111706   1.000000
   29        2.239734   1.000000
   30        2.239758   1.000000
   31        2.472334   1.000000
   32        2.472345   1.000000
   33        2.625507   1.000000
   34        2.625530   1.000000
   35        2.627397   1.000000
   36        2.627425   1.000000
   37        2.753992   1.000000
   38        2.754019   1.000000
   39        2.842805   1.000000
   40        2.842821   1.000000
   41        2.881549   1.000000
   42        2.881571   1.000000
   43        2.980686   1.000000
   44        2.980716   1.000000
   45        3.636231   1.000000
   46        3.636240   1.000000
   47        3.638803   1.000000
   48        3.638821   1.000000
   49        4.553387   1.000000
   50        4.553423   1.000000
   51        4.815404   1.000000
   52        4.815423   1.000000
   53        5.210281   1.000000
   54        5.210288   1.000000
   55        5.469291   1.000000
   56        5.469314   1.000000
   57        7.872648   0.000000
   58        7.872684   0.000000
   59        8.364086   0.000000
   60        8.364158   0.000000
   61        9.347753   0.000000
   62        9.347808   0.000000
   63        9.559733   0.000000
   64        9.559755   0.000000
   65       11.128784   0.000000
   66       11.128803   0.000000
   67       11.623878   0.000000
   68       11.623898   0.000000
   69       12.286425   0.000000
   70       12.286544   0.000000
   71       12.722206   0.000000
   72       12.722229   0.000000
   73       13.657959   0.000000
   74       13.657992   0.000000
   75       14.295342   0.000000
   76       14.295387   0.000000
   77       14.595999   0.000000
   78       14.596047   0.000000
   79       16.035588   0.000000
   80       16.035789   0.000000
 
 -0.2500000E+00  0.2500000E+00  0.0000000E+00  0.2083333E-01
    1       -7.314518   1.000000
    2       -6.982648   1.000000
    3       -6.898918   1.000000
    4       -6.754138   1.000000
    5       -0.104238   1.000000
    6        0.255495   1.000000
    7        0.315538   1.000000
    8        0.420126   1.000000
    9        0.640730   1.000000
   10        0.655666   1.000000
   11        0.844343   1.000000
   12        0.886519   1.000000
   13        0.943000   1.000000
   14        1.152096   1.000000
   15        1.248957   1.000000
   16        1.290132   1.000000
   17        1.379734   1.000000
   18        1.445783   1.000000
   19        1.531169   1.000000
   20        1.541648   1.000000
   21        1.661595   1.000000
   22        1.703632   1.000000
   23        1.821938   1.000000
   24        1.895491   1.000000
   25        1.940544   1.000000
   26        1.979065   1.000000
   27        2.058481   1.000000
   28        2.215620   1.000000
   29        2.238690   1.000000
   30        2.291899   1.000000
   31        2.334717   1.000000
   32        2.420923   1.000000
   33        2.500765   1.000000
   34        2.547277   1.000000
   35        2.605631   1.000000
   36        2.636077   1.000000
   37        2.700321   1.000000
   38        2.832182   1.000000
   39        2.840278   1.000000
   40        2.888433   1.000000
   41        2.902037   1.000000
   42        2.983496   1.000000
   43        2.998964   1.000000
   44        3.069915   1.000000
   45        3.336939   1.000000
   46        3.386595   1.000000
   47        3.665800   1.000000
   48        3.871419   1.000000
   49        4.274940   1.000000
   50        4.489972   1.000000
   51        4.566711   1.000000
   52        5.060674   1.000000
   53        5.391951   1.000000
   54        5.660759   1.000000
   55        5.744354   1.000000
   56        5.808741   1.000000
   57        7.294810   0.000000
   58        7.562597   0.000000
   59        7.643372   0.000000
   60        7.931041   0.000000
   61        8.578995   0.000000
   62       10.085649   0.000000
   63       10.122435   0.000000
   64       10.302889   0.000000
   65       10.545420   0.000000
   66       10.803567   0.000000
   67       11.838013   0.000000
   68       11.895886   0.000000
   69       12.420876   0.000000
   70       12.532135   0.000000
   71       13.053177   0.000000
   72       13.394279   0.000000
   73       13.534835   0.000000
   74       14.170737   0.000000
   75       14.359645   0.000000
   76       14.901582   0.000000
   77       15.120359   0.000000
   78       15.204326   0.000000
   79       15.769113   0.000000
   80       15.843103   0.000000
 
  0.0000000E+00  0.5000000E+00  0.0000000E+00  0.1041667E-01
    1       -7.164330   1.000000
    2       -7.164304   1.000000
    3       -6.818025   1.000000
    4       -6.818000   1.000000
    5        0.158077   1.000000
    6        0.158097   1.000000
    7        0.447221   1.000000
    8        0.447230   1.000000
    9        0.654890   1.000000
   10        0.654890   1.000000
   11        0.687801   1.000000
   12        0.687805   1.000000
   13        1.085009   1.000000
   14        1.085026   1.000000
   15        1.237087   1.000000
   16        1.237098   1.000000
   17        1.367174   1.000000
   18        1.367184   1.000000
   19        1.749575   1.000000
   20        1.749587   1.000000
   21        1.753167   1.000000
   22        1.753171   1.000000
   23        1.787843   1.000000
   24        1.787855   1.000000
   25        1.948456   1.000000
   26        1.948458   1.000000
   27        2.118992   1.000000
   28        2.119001   1.000000
   29        2.156789   1.000000
   30        2.156799   1.000000
   31        2.294840   1.000000
   32        2.294842   1.000000
   33        2.472780   1.000000
   34        2.472787   1.000000
   35        2.730570   1.000000
   36        2.730578   1.000000
   37        2.802407   1.000000
   38        2.802408   1.000000
   39        2.901388   1.000000
   40        2.901397   1.000000
   41        2.995592   1.000000
   42        2.995592   1.000000
   43        3.031778   1.000000
   44        3.031783   1.000000
   45        3.401014   1.000000
   46        3.401015   1.000000
   47        3.698192   1.000000
   48        3.698206   1.000000
   49        3.818947   1.000000
   50        3.818960   1.000000
   51        4.853781   1.000000
   52        4.853784   1.000000
   53        5.919784   1.000000
   54        5.919788   1.000000
   55        6.200947   0.963790
   56        6.200956   0.963769
   57        6.983408   0.000000
   58        6.983427   0.000000
   59        7.728622   0.000000
   60        7.728634   0.000000
   61        9.336187   0.000000
   62        9.336189   0.000000
   63       10.490149   0.000000
   64       10.490153   0.000000
   65       10.546694   0.000000
   66       10.546695   0.000000
   67       11.791264   0.000000
   68       11.791294   0.000000
   69       12.424198   0.000000
   70       12.424225   0.000000
   71       12.982875   0.000000
   72       12.982895   0.000000
   73       13.808807   0.000000
   74       13.808816   0.000000
   75       14.859591   0.000000
   76       14.859605   0.000000
   77       15.249504   0.000000
   78       15.249509   0.000000
   79       16.595375   0.000000
   80       16.595388   0.000000
 
  0.2500000E+00  0.5000000E+00  0.0000000E+00  0.2083333E-01
    1       -7.114979   1.000000
    2       -7.114954   1.000000
    3       -6.870056   1.000000
    4       -6.870031   1.000000
    5        0.125622   1.000000
    6        0.125637   1.000000
    7        0.313214   1.000000
    8        0.313221   1.000000
    9        0.699279   1.000000
   10        0.699312   1.000000
   11        0.822054   1.000000
   12        0.822080   1.000000
   13        1.027545   1.000000
   14        1.027563   1.000000
   15        1.270819   1.000000
   16        1.270830   1.000000
   17        1.424218   1.000000
   18        1.424226   1.000000
   19        1.585465   1.000000
   20        1.585489   1.000000
   21        1.637894   1.000000
   22        1.637922   1.000000
   23        1.795270   1.000000
   24        1.795279   1.000000
   25        2.026797   1.000000
   26        2.026831   1.000000
   27        2.100477   1.000000
   28        2.100496   1.000000
   29        2.304552   1.000000
   30        2.304565   1.000000
   31        2.375866   1.000000
   32        2.375867   1.000000
   33        2.577673   1.000000
   34        2.577691   1.000000
   35        2.639731   1.000000
   36        2.639745   1.000000
   37        2.755579   1.000000
   38        2.755587   1.000000
   39        2.893132   1.000000
   40        2.893161   1.000000
   41        2.897474   1.000000
   42        2.897495   1.000000
   43        2.999339   1.000000
   44        2.999350   1.000000
   45        3.557442   1.000000
   46        3.557487   1.000000
   47        3.620357   1.000000
   48        3.620361   1.000000
   49        4.236911   1.000000
   50        4.236924   1.000000
   51        4.817104   1.000000
   52        4.817123   1.000000
   53        5.484701   1.000000
   54        5.484727   1.000000
   55        5.664827   1.000000
   56        5.664834   1.000000
   57        7.754958   0.000000
   58        7.754980   0.000000
   59        7.943285   0.000000
   60        7.943340   0.000000
   61        9.453170   0.000000
   62        9.453224   0.000000
   63        9.907710   0.000000
   64        9.907737   0.000000
   65       10.935399   0.000000
   66       10.935408   0.000000
   67       12.097958   0.000000
   68       12.098005   0.000000
   69       12.236801   0.000000
   70       12.236848   0.000000
   71       12.565954   0.000000
   72       12.565982   0.000000
   73       13.813656   0.000000
   74       13.813673   0.000000
   75       14.210077   0.000000
   76       14.210100   0.000000
   77       15.326364   0.000000
   78       15.326437   0.000000
   79       15.575555   0.000000
   80       15.575571   0.000000
 
  0.5000000E+00  0.5000000E+00  0.0000000E+00  0.1041667E-01
    1       -6.993861   1.000000
    2       -6.993858   1.000000
    3       -6.993835   1.000000
    4       -6.993834   1.000000
    5        0.152212   1.000000
    6        0.152246   1.000000
    7        0.152253   1.000000
    8        0.152271   1.000000
    9        0.830355   1.000000
   10        0.830389   1.000000
   11        0.830390   1.000000
   12        0.830451   1.000000
   13        1.145881   1.000000
   14        1.145908   1.000000
   15        1.145910   1.000000
   16        1.145916   1.000000
   17        1.457028   1.000000
   18        1.457045   1.000000
   19        1.457051   1.000000
   20        1.457070   1.000000
   21        1.660840   1.000000
   22        1.660854   1.000000
   23        1.660864   1.000000
   24        1.660894   1.000000
   25        2.181304   1.000000
   26        2.181307   1.000000
   27        2.181313   1.000000
   28        2.181327   1.000000
   29        2.315429   1.000000
   30        2.315450   1.000000
   31        2.315465   1.000000
   32        2.315481   1.000000
   33        2.629140   1.000000
   34        2.629140   1.000000
   35        2.629165   1.000000
   36        2.629176   1.000000
   37        2.792509   1.000000
   38        2.792521   1.000000
   39        2.792523   1.000000
   40        2.792538   1.000000
   41        2.915086   1.000000
   42        2.915089   1.000000
   43        2.915125   1.000000
   44        2.915129   1.000000
   45        3.749595   1.000000
   46        3.749617   1.000000
   47        3.749635   1.000000
   48        3.749649   1.000000
   49        4.700651   1.000000
   50        4.700675   1.000000
   51        4.700730   1.000000
   52        4.700767   1.000000
   53        5.113944   1.000000
   54        5.113970   1.000000
   55        5.114059   1.000000
   56        5.114063   1.000000
   57        8.373422   0.000000
   58        8.373495   0.000000
   59        8.373503   0.000000
   60        8.373573   0.000000
   61        9.320477   0.000000
   62        9.320485   0.000000
   63        9.320500   0.000000
   64        9.320500   0.000000
   65       11.647229   0.000000
   66       11.647242   0.000000
   67       11.647365   0.000000
   68       11.647378   0.000000
   69       12.666605   0.000000
   70       12.666636   0.000000
   71       12.666640   0.000000
   72       12.666675   0.000000
   73       13.400197   0.000000
   74       13.400304   0.000000
   75       13.400407   0.000000
   76       13.400474   0.000000
   77       14.706195   0.000000
   78       14.706247   0.000000
   79       14.706300   0.000000
   80       14.706347   0.000000
 
  0.0000000E+00  0.0000000E+00  0.1666667E+00  0.2083333E-01
    1       -7.397534   1.000000
    2       -6.934846   1.000000
    3       -6.806195   1.000000
    4       -6.701482   1.000000
    5       -0.176112   1.000000
    6        0.347726   1.000000
    7        0.363118   1.000000
    8        0.538403   1.000000
    9        0.636192   1.000000
   10        0.661211   1.000000
   11        0.789098   1.000000
   12        0.845726   1.000000
   13        0.954790   1.000000
   14        1.112825   1.000000
   15        1.309188   1.000000
   16        1.360116   1.000000
   17        1.382408   1.000000
   18        1.509223   1.000000
   19        1.522537   1.000000
   20        1.539895   1.000000
   21        1.716812   1.000000
   22        1.748143   1.000000
   23        1.918577   1.000000
   24        2.004937   1.000000
   25        2.023681   1.000000
   26        2.027354   1.000000
   27        2.042593   1.000000
   28        2.063460   1.000000
   29        2.106288   1.000000
   30        2.165687   1.000000
   31        2.256058   1.000000
   32        2.289239   1.000000
   33        2.417122   1.000000
   34        2.448755   1.000000
   35        2.522651   1.000000
   36        2.601115   1.000000
   37        2.678272   1.000000
   38        2.796580   1.000000
   39        2.818389   1.000000
   40        2.856134   1.000000
   41        2.951116   1.000000
   42        2.980146   1.000000
   43        3.000893   1.000000
   44        3.061000   1.000000
   45        3.180288   1.000000
   46        3.217917   1.000000
   47        3.369874   1.000000
   48        4.184163   1.000000
   49        4.382723   1.000000
   50        4.524013   1.000000
   51        4.623615   1.000000
   52        4.852747   1.000000
   53        5.117572   1.000000
   54        5.425766   1.000000
   55        6.130223   0.999927
   56        6.135990   0.999860
   57        6.279162   0.338774
   58        6.897431   0.000000
   59        7.387162   0.000000
   60        8.397848   0.000000
   61        8.830583   0.000000
   62        9.511240   0.000000
   63       10.632297   0.000000
   64       10.708926   0.000000
   65       11.520115   0.000000
   66       11.724549   0.000000
   67       11.882821   0.000000
   68       12.409984   0.000000
   69       12.701620   0.000000
   70       13.018514   0.000000
   71       13.491671   0.000000
   72       13.545656   0.000000
   73       14.260091   0.000000
   74       14.381747   0.000000
   75       14.463465   0.000000
   76       14.681761   0.000000
   77       15.289859   0.000000
   78       15.574066   0.000000
   79       15.846934   0.000000
   80       16.194855   0.000000
 
  0.2500000E+00 -0.6776264E-20  0.1666667E+00  0.2083333E-01