 vasp.5.4.4.18Apr17-6-g9f103f2a35 (build Jul 30 2020 14:31:59) complex          
  
 executed on             LinuxIFC date 2021.02.03  10:48:01
 running on   20 total cores
 distrk:  each k-point on   20 cores,    1 groups
 distr:  one band on NCORES_PER_BAND=   1 cores,   20 groups


--------------------------------------------------------------------------------------------------------


 INCAR:
 POTCAR:    PAW_PBE Ag 02Apr2005                  
 POTCAR:    PAW_PBE Se 06Sep2000                  

 ----------------------------------------------------------------------------- 
|                                                                             |
|           W    W    AA    RRRRR   N    N  II  N    N   GGGG   !!!           |
|           W    W   A  A   R    R  NN   N  II  NN   N  G    G  !!!           |
|           W    W  A    A  R    R  N N  N  II  N N  N  G       !!!           |
|           W WW W  AAAAAA  RRRRR   N  N N  II  N  N N  G  GGG   !            |
|           WW  WW  A    A  R   R   N   NN  II  N   NN  G    G                |
|           W    W  A    A  R    R  N    N  II  N    N   GGGG   !!!           |
|                                                                             |
|      For optimal performance we recommend to set                            |
|        NCORE= 4 - approx SQRT( number of cores)                             |
|      NCORE specifies how many cores store one orbital (NPAR=cpu/NCORE).     |
|      This setting can  greatly improve the performance of VASP for DFT.     |
|      The default,   NCORE=1            might be grossly inefficient         |
|      on modern multi-core architectures or massively parallel machines.     |
|      Do your own testing !!!!                                               |
|      Unfortunately you need to use the default for GW and RPA calculations. |
|      (for HF NCORE is supported but not extensively tested yet)             |
|                                                                             |
 ----------------------------------------------------------------------------- 

 POTCAR:    PAW_PBE Ag 02Apr2005                  
   VRHFIN =Ag : s1 d10                                                          
   LEXCH  = PE                                                                  
   EATOM  =  1037.2675 eV,   76.2370 Ry                                         
                                                                                
   TITEL  = PAW_PBE Ag 02Apr2005                                                
   LULTRA =        F    use ultrasoft PP ?                                      
   IUNSCR =        1    unscreen: 0-lin 1-nonlin 2-no                           
   RPACOR =    2.000    partial core radius                                     
   POMASS =  107.868; ZVAL   =   11.000    mass and valenz                      
   RCORE  =    2.500    outmost cutoff radius                                   
   RWIGS  =    2.840; RWIGS  =    1.503    wigner-seitz radius (au A)           
   ENMAX  =  249.844; ENMIN  =  187.383 eV                                      
   ICORE  =        3    local potential                                         
   LCOR   =        T    correct aug charges                                     
   LPAW   =        T    paw PP                                                  
   EAUG   =  412.496                                                            
   DEXC   =    0.000                                                            
   RMAX   =    2.560    core radius for proj-oper                               
   RAUG   =    1.300    factor for augmentation sphere                          
   RDEP   =    2.576    radius for radial grids                                 
   RDEPT  =    2.072    core radius for aug-charge                              
                                                                                
   Atomic configuration                                                         
   12 entries                                                                   
     n  l   j            E        occ.                                          
     1  0  0.50    -25324.9161   2.0000                                         
     2  0  0.50     -3728.5341   2.0000                                         
     2  1  1.50     -3344.0404   6.0000                                         
     3  0  0.50      -683.5581   2.0000                                         
     3  1  1.50      -557.3225   6.0000                                         
     3  2  2.50      -358.3853  10.0000                                         
     4  0  0.50       -95.0341   2.0000                                         
     4  1  1.50       -58.5511   6.0000                                         
     4  2  2.50        -7.4440  10.0000                                         
     5  0  0.50        -4.4045   1.0000                                         
     5  1  0.50        -1.3606   0.0000                                         
     4  3  2.50        -1.3606   0.0000                                         
   Description                                                                  
     l       E           TYP  RCUT    TYP  RCUT                                 
     2     -7.4439781     23  2.400                                             
     2     -8.8045607     23  2.400                                             
     0     -4.4044681     23  2.400                                             
     0      1.9520038     23  2.400                                             
     1     -1.3605826     23  2.500                                             
     1     27.2116520     23  2.500                                             
     3     -4.0817478     23  2.400                                             
  local pseudopotential read in
  partial core-charges read in
  partial kinetic energy density read in
  atomic valenz-charges read in
  non local Contribution for L=           2  read in
    real space projection operators read in
  non local Contribution for L=           2  read in
    real space projection operators read in
  non local Contribution for L=           0  read in
    real space projection operators read in
  non local Contribution for L=           0  read in
    real space projection operators read in
  non local Contribution for L=           1  read in
    real space projection operators read in
  non local Contribution for L=           1  read in
    real space projection operators read in
    PAW grid and wavefunctions read in
 
   number of l-projection  operators is LMAX  =           6
   number of lm-projection operators is LMMAX =          18
 
 POTCAR:    PAW_PBE Se 06Sep2000                  
   VRHFIN =Se: s2p4                                                             
   LEXCH  = PE                                                                  
   EATOM  =   257.1286 eV,   18.8984 Ry                                         
                                                                                
   TITEL  = PAW_PBE Se 06Sep2000                                                
   LULTRA =        F    use ultrasoft PP ?                                      
   IUNSCR =        1    unscreen: 0-lin 1-nonlin 2-no                           
   RPACOR =    1.900    partial core radius                                     
   POMASS =   78.960; ZVAL   =    6.000    mass and valenz                      
   RCORE  =    2.100    outmost cutoff radius                                   
   RWIGS  =    2.200; RWIGS  =    1.164    wigner-seitz radius (au A)           
   ENMAX  =  211.555; ENMIN  =  158.666 eV                                      
   ICORE  =        3    local potential                                         
   LCOR   =        T    correct aug charges                                     
   LPAW   =        T    paw PP                                                  
   EAUG   =  446.842                                                            
   DEXC   =    0.000                                                            
   RMAX   =    2.147    core radius for proj-oper                               
   RAUG   =    1.300    factor for augmentation sphere                          
   RDEP   =    2.177    radius for radial grids                                 
   RDEPT  =    1.928    core radius for aug-charge                              
                                                                                
   Atomic configuration                                                         
   10 entries                                                                   
     n  l   j            E        occ.                                          
     1  0  0.50    -12503.4787   2.0000                                         
     2  0  0.50     -1606.9547   2.0000                                         
     2  1  1.50     -1413.3140   6.0000                                         
     3  0  0.50      -213.4885   2.0000                                         
     3  1  1.50      -152.9538   6.0000                                         
     3  2  2.50       -53.1221  10.0000                                         
     4  0  0.50       -17.2865   2.0000                                         
     4  1  0.50        -6.5110   4.0000                                         
     4  2  2.50        -6.8029   0.0000                                         
     4  3  2.50        -6.8029   0.0000                                         
   Description                                                                  
     l       E           TYP  RCUT    TYP  RCUT                                 
     0    -17.2865377     23  2.100                                             
     0    -15.3094411     23  2.100                                             
     1     -6.5110275     23  2.100                                             
     1     -0.0695192     23  2.100                                             
     2     -6.8029130     23  2.100                                             
     3     -1.3605826      7  2.100                                             
  local pseudopotential read in
  partial core-charges read in
  partial kinetic energy density read in
  atomic valenz-charges read in
  non local Contribution for L=           0  read in
    real space projection operators read in
  non local Contribution for L=           0  read in
    real space projection operators read in
  non local Contribution for L=           1  read in
    real space projection operators read in
  non local Contribution for L=           1  read in
    real space projection operators read in
  non local Contribution for L=           2  read in
    real space projection operators read in
    PAW grid and wavefunctions read in
 
   number of l-projection  operators is LMAX  =           5
   number of lm-projection operators is LMMAX =          13
 

 ----------------------------------------------------------------------------- 
|                                                                             |
|  ADVICE TO THIS USER RUNNING 'VASP/VAMP'   (HEAR YOUR MASTER'S VOICE ...):  |
|                                                                             |
|      You enforced a specific xc-type in the INCAR file,                     |
|      a different type was found on the POTCAR file                          |
|          I HOPE YOU KNOW, WHAT YOU ARE  DOING                               |
|                                                                             |
 ----------------------------------------------------------------------------- 

  PAW_PBE Ag 02Apr2005                  :
 energy of atom  1       EATOM=-1037.2675
 kinetic energy error for atom=    0.0011 (will be added to EATOM!!)
  PAW_PBE Se 06Sep2000                  :
 energy of atom  2       EATOM= -257.1286
 kinetic energy error for atom=    0.0005 (will be added to EATOM!!)
 
 
 POSCAR: # Compound: Ag8Se4. Old comment: Ag2Se p
  positions in direct lattice
  No initial velocities read in
 exchange correlation table for  LEXCH =       14
   RHO(1)=    0.500       N(1)  =     2000
   RHO(2)=  100.500       N(2)  =     4000
 


--------------------------------------------------------------------------------------------------------


 ion  position               nearest neighbor table
   1  0.860  0.343  0.997-   9 2.68  12 2.74  11 2.81   8 2.84  11 2.85   6 2.87   6 2.87   2 2.92

   2  0.140  0.657  0.997-   9 2.68  12 2.74  11 2.81   7 2.84  11 2.85   5 2.87   5 2.87   1 2.92

   3  0.640  0.843  0.169-  12 2.68   9 2.74  10 2.81   5 2.84  10 2.85   7 2.87   7 2.87   4 2.92

   4  0.360  0.157  0.169-  12 2.68   9 2.74  10 2.81   6 2.84  10 2.85   8 2.87   8 2.87   3 2.92

   5  0.360  0.657  0.497-  10 2.68  11 2.74  12 2.81   3 2.84  12 2.85   2 2.87   2 2.87   6 2.92

   6  0.640  0.343  0.497-  10 2.68  11 2.74  12 2.81   4 2.84  12 2.85   1 2.87   1 2.87   5 2.92

   7  0.860  0.843  0.669-  11 2.68  10 2.74   9 2.81   2 2.84   9 2.85   3 2.87   3 2.87   8 2.92

   8  0.140  0.157  0.669-  11 2.68  10 2.74   9 2.81   1 2.84   9 2.85   4 2.87   4 2.87   7 2.92

   9  0.000  0.000  0.164-   1 2.68   2 2.68   3 2.74   4 2.74   7 2.81   8 2.81   7 2.85   8 2.85

  10  0.500  0.000  0.664-   5 2.68   6 2.68   7 2.74   8 2.74   3 2.81   4 2.81   3 2.85   4 2.85

  11  0.000  0.500  0.502-   7 2.68   8 2.68   5 2.74   6 2.74   1 2.81   2 2.81   1 2.85   2 2.85

  12  0.500  0.500  0.002-   3 2.68   4 2.68   1 2.74   2 2.74   5 2.81   6 2.81   5 2.85   6 2.85

 

IMPORTANT INFORMATION: All symmetrisations will be switched off!
NOSYMM: (Re-)initialisation of all symmetry stuff for point group C_1.

 
 
 KPOINTS: # No comment                            

Automatic generation of k-mesh.
Space group operators:
 irot       det(A)        alpha          n_x          n_y          n_z        tau_x        tau_y        tau_z
    1     1.000000     0.000000     1.000000     0.000000     0.000000     0.000000     0.000000     0.000000
 
 Subroutine IBZKPT returns following result:
 ===========================================
 
 Found     52 irreducible k-points:
 
 Following reciprocal coordinates:
            Coordinates               Weight
  0.000000  0.000000  0.000000      1.000000
  0.250000 -0.000000  0.000000      2.000000
  0.500000 -0.000000  0.000000      1.000000
  0.000000  0.250000  0.000000      2.000000
  0.250000  0.250000  0.000000      2.000000
  0.500000  0.250000  0.000000      2.000000
 -0.250000  0.250000  0.000000      2.000000
  0.000000  0.500000  0.000000      1.000000
  0.250000  0.500000  0.000000      2.000000
  0.500000  0.500000  0.000000      1.000000
  0.000000  0.000000  0.166667      2.000000
  0.250000 -0.000000  0.166667      2.000000
  0.500000 -0.000000  0.166667      2.000000
 -0.250000  0.000000  0.166667      2.000000
  0.000000  0.250000  0.166667      2.000000
  0.250000  0.250000  0.166667      2.000000
  0.500000  0.250000  0.166667      2.000000
 -0.250000  0.250000  0.166667      2.000000
  0.000000  0.500000  0.166667      2.000000
  0.250000  0.500000  0.166667      2.000000
  0.500000  0.500000  0.166667      2.000000
 -0.250000  0.500000  0.166667      2.000000
  0.000000 -0.250000  0.166667      2.000000
  0.250000 -0.250000  0.166667      2.000000
  0.500000 -0.250000  0.166667      2.000000
 -0.250000 -0.250000  0.166667      2.000000
  0.000000  0.000000  0.333333      2.000000
  0.250000 -0.000000  0.333333      2.000000
  0.500000 -0.000000  0.333333      2.000000
 -0.250000  0.000000  0.333333      2.000000
  0.000000  0.250000  0.333333      2.000000
  0.250000  0.250000  0.333333      2.000000
  0.500000  0.250000  0.333333      2.000000
 -0.250000  0.250000  0.333333      2.000000
  0.000000  0.500000  0.333333      2.000000
  0.250000  0.500000  0.333333      2.000000
  0.500000  0.500000  0.333333      2.000000
 -0.250000  0.500000  0.333333      2.000000
  0.000000 -0.250000  0.333333      2.000000
  0.250000 -0.250000  0.333333      2.000000
  0.500000 -0.250000  0.333333      2.000000
 -0.250000 -0.250000  0.333333      2.000000
  0.000000  0.000000  0.500000      1.000000
  0.250000 -0.000000  0.500000      2.000000
  0.500000 -0.000000  0.500000      1.000000
  0.000000  0.250000  0.500000      2.000000
  0.250000  0.250000  0.500000      2.000000
  0.500000  0.250000  0.500000      2.000000
 -0.250000  0.250000  0.500000      2.000000
  0.000000  0.500000  0.500000      1.000000
  0.250000  0.500000  0.500000      2.000000
  0.500000  0.500000  0.500000      1.000000
 
 Following cartesian coordinates:
            Coordinates               Weight
  0.000000  0.000000  0.000000      1.000000
  0.035688  0.000004  0.000000      2.000000
  0.071376  0.000008  0.000000      1.000000
 -0.000004  0.036319  0.000000      2.000000
  0.035684  0.036323  0.000000      2.000000
  0.071372  0.036327  0.000000      2.000000
 -0.035691  0.036315  0.000000      2.000000
 -0.000007  0.072638  0.000000      1.000000
  0.035681  0.072642  0.000000      2.000000
  0.071368  0.072646  0.000000      1.000000
  0.000000  0.000000  0.034364      2.000000
  0.035688  0.000004  0.034364      2.000000
  0.071376  0.000008  0.034364      2.000000
 -0.035688 -0.000004  0.034364      2.000000
 -0.000004  0.036319  0.034364      2.000000
  0.035684  0.036323  0.034364      2.000000
  0.071372  0.036327  0.034364      2.000000
 -0.035691  0.036315  0.034364      2.000000
 -0.000007  0.072638  0.034364      2.000000
  0.035681  0.072642  0.034364      2.000000
  0.071368  0.072646  0.034364      2.000000
 -0.035695  0.072634  0.034364      2.000000
  0.000004 -0.036319  0.034364      2.000000
  0.035691 -0.036315  0.034364      2.000000
  0.071379 -0.036311  0.034364      2.000000
 -0.035684 -0.036323  0.034364      2.000000
  0.000000  0.000000  0.068728      2.000000
  0.035688  0.000004  0.068728      2.000000
  0.071376  0.000008  0.068728      2.000000
 -0.035688 -0.000004  0.068728      2.000000
 -0.000004  0.036319  0.068728      2.000000
  0.035684  0.036323  0.068728      2.000000
  0.071372  0.036327  0.068728      2.000000
 -0.035691  0.036315  0.068728      2.000000
 -0.000007  0.072638  0.068728      2.000000
  0.035681  0.072642  0.068728      2.000000
  0.071368  0.072646  0.068728      2.000000
 -0.035695  0.072634  0.068728      2.000000
  0.000004 -0.036319  0.068728      2.000000
  0.035691 -0.036315  0.068728      2.000000
  0.071379 -0.036311  0.068728      2.000000
 -0.035684 -0.036323  0.068728      2.000000
  0.000000  0.000000  0.103091      1.000000
  0.035688  0.000004  0.103091      2.000000
  0.071376  0.000008  0.103091      1.000000
 -0.000004  0.036319  0.103091      2.000000
  0.035684  0.036323  0.103091      2.000000
  0.071372  0.036327  0.103091      2.000000
 -0.035691  0.036315  0.103091      2.000000
 -0.000007  0.072638  0.103091      1.000000
  0.035681  0.072642  0.103091      2.000000
  0.071368  0.072646  0.103091      1.000000
 
 
 Subroutine IBZKPT_HF returns following result:
 ==============================================
 
 Found     96 k-points in 1st BZ
 the following     96 k-points will be used (e.g. in the exchange kernel)
 Following reciprocal coordinates:   # in IRBZ
  0.000000  0.000000  0.000000    0.01041667   1 t-inv F
  0.250000 -0.000000  0.000000    0.01041667   2 t-inv F
  0.500000 -0.000000  0.000000    0.01041667   3 t-inv F
  0.000000  0.250000  0.000000    0.01041667   4 t-inv F
  0.250000  0.250000  0.000000    0.01041667   5 t-inv F
  0.500000  0.250000  0.000000    0.01041667   6 t-inv F
 -0.250000  0.250000  0.000000    0.01041667   7 t-inv F
  0.000000  0.500000  0.000000    0.01041667   8 t-inv F
  0.250000  0.500000  0.000000    0.01041667   9 t-inv F
  0.500000  0.500000  0.000000    0.01041667  10 t-inv F
  0.000000  0.000000  0.166667    0.01041667  11 t-inv F
  0.250000 -0.000000  0.166667    0.01041667  12 t-inv F
  0.500000 -0.000000  0.166667    0.01041667  13 t-inv F
 -0.250000  0.000000  0.166667    0.01041667  14 t-inv F
  0.000000  0.250000  0.166667    0.01041667  15 t-inv F
  0.250000  0.250000  0.166667    0.01041667  16 t-inv F
  0.500000  0.250000  0.166667    0.01041667  17 t-inv F
 -0.250000  0.250000  0.166667    0.01041667  18 t-inv F
  0.000000  0.500000  0.166667    0.01041667  19 t-inv F
  0.250000  0.500000  0.166667    0.01041667  20 t-inv F
  0.500000  0.500000  0.166667    0.01041667  21 t-inv F
 -0.250000  0.500000  0.166667    0.01041667  22 t-inv F
  0.000000 -0.250000  0.166667    0.01041667  23 t-inv F
  0.250000 -0.250000  0.166667    0.01041667  24 t-inv F
  0.500000 -0.250000  0.166667    0.01041667  25 t-inv F
 -0.250000 -0.250000  0.166667    0.01041667  26 t-inv F
  0.000000  0.000000  0.333333    0.01041667  27 t-inv F
  0.250000 -0.000000  0.333333    0.01041667  28 t-inv F
  0.500000 -0.000000  0.333333    0.01041667  29 t-inv F
 -0.250000  0.000000  0.333333    0.01041667  30 t-inv F
  0.000000  0.250000  0.333333    0.01041667  31 t-inv F
  0.250000  0.250000  0.333333    0.01041667  32 t-inv F
  0.500000  0.250000  0.333333    0.01041667  33 t-inv F
 -0.250000  0.250000  0.333333    0.01041667  34 t-inv F
  0.000000  0.500000  0.333333    0.01041667  35 t-inv F
  0.250000  0.500000  0.333333    0.01041667  36 t-inv F
  0.500000  0.500000  0.333333    0.01041667  37 t-inv F
 -0.250000  0.500000  0.333333    0.01041667  38 t-inv F
  0.000000 -0.250000  0.333333    0.01041667  39 t-inv F
  0.250000 -0.250000  0.333333    0.01041667  40 t-inv F
  0.500000 -0.250000  0.333333    0.01041667  41 t-inv F
 -0.250000 -0.250000  0.333333    0.01041667  42 t-inv F
  0.000000  0.000000  0.500000    0.01041667  43 t-inv F
  0.250000 -0.000000  0.500000    0.01041667  44 t-inv F
  0.500000 -0.000000  0.500000    0.01041667  45 t-inv F
  0.000000  0.250000  0.500000    0.01041667  46 t-inv F
  0.250000  0.250000  0.500000    0.01041667  47 t-inv F
  0.500000  0.250000  0.500000    0.01041667  48 t-inv F
 -0.250000  0.250000  0.500000    0.01041667  49 t-inv F
  0.000000  0.500000  0.500000    0.01041667  50 t-inv F
  0.250000  0.500000  0.500000    0.01041667  51 t-inv F
  0.500000  0.500000  0.500000    0.01041667  52 t-inv F
 -0.250000  0.000000  0.000000    0.01041667   2 t-inv T
  0.000000 -0.250000  0.000000    0.01041667   4 t-inv T
 -0.250000 -0.250000  0.000000    0.01041667   5 t-inv T
 -0.500000 -0.250000  0.000000    0.01041667   6 t-inv T
  0.250000 -0.250000  0.000000    0.01041667   7 t-inv T
 -0.250000 -0.500000  0.000000    0.01041667   9 t-inv T
  0.000000  0.000000 -0.166667    0.01041667  11 t-inv T
 -0.250000  0.000000 -0.166667    0.01041667  12 t-inv T
 -0.500000  0.000000 -0.166667    0.01041667  13 t-inv T
  0.250000 -0.000000 -0.166667    0.01041667  14 t-inv T
  0.000000 -0.250000 -0.166667    0.01041667  15 t-inv T
 -0.250000 -0.250000 -0.166667    0.01041667  16 t-inv T
 -0.500000 -0.250000 -0.166667    0.01041667  17 t-inv T
  0.250000 -0.250000 -0.166667    0.01041667  18 t-inv T
  0.000000 -0.500000 -0.166667    0.01041667  19 t-inv T
 -0.250000 -0.500000 -0.166667    0.01041667  20 t-inv T
 -0.500000 -0.500000 -0.166667    0.01041667  21 t-inv T
  0.250000 -0.500000 -0.166667    0.01041667  22 t-inv T
  0.000000  0.250000 -0.166667    0.01041667  23 t-inv T
 -0.250000  0.250000 -0.166667    0.01041667  24 t-inv T
 -0.500000  0.250000 -0.166667    0.01041667  25 t-inv T
  0.250000  0.250000 -0.166667    0.01041667  26 t-inv T
  0.000000  0.000000 -0.333333    0.01041667  27 t-inv T
 -0.250000  0.000000 -0.333333    0.01041667  28 t-inv T
 -0.500000  0.000000 -0.333333    0.01041667  29 t-inv T
  0.250000 -0.000000 -0.333333    0.01041667  30 t-inv T
  0.000000 -0.250000 -0.333333    0.01041667  31 t-inv T
 -0.250000 -0.250000 -0.333333    0.01041667  32 t-inv T
 -0.500000 -0.250000 -0.333333    0.01041667  33 t-inv T
  0.250000 -0.250000 -0.333333    0.01041667  34 t-inv T
  0.000000 -0.500000 -0.333333    0.01041667  35 t-inv T
 -0.250000 -0.500000 -0.333333    0.01041667  36 t-inv T
 -0.500000 -0.500000 -0.333333    0.01041667  37 t-inv T
  0.250000 -0.500000 -0.333333    0.01041667  38 t-inv T
  0.000000  0.250000 -0.333333    0.01041667  39 t-inv T
 -0.250000  0.250000 -0.333333    0.01041667  40 t-inv T
 -0.500000  0.250000 -0.333333    0.01041667  41 t-inv T
  0.250000  0.250000 -0.333333    0.01041667  42 t-inv T
 -0.250000  0.000000 -0.500000    0.01041667  44 t-inv T
  0.000000 -0.250000 -0.500000    0.01041667  46 t-inv T
 -0.250000 -0.250000 -0.500000    0.01041667  47 t-inv T
 -0.500000 -0.250000 -0.500000    0.01041667  48 t-inv T
  0.250000 -0.250000 -0.500000    0.01041667  49 t-inv T
 -0.250000 -0.500000 -0.500000    0.01041667  51 t-inv T


--------------------------------------------------------------------------------------------------------




 Dimension of arrays:
   k-points           NKPTS =     52   k-points in BZ     NKDIM =     52   number of bands    NBANDS=     80
   number of dos      NEDOS =    301   number of ions     NIONS =     12
   non local maximal  LDIM  =      6   non local SUM 2l+1 LMDIM =     18
   total plane-waves  NPLWV = 144000
   max r-space proj   IRMAX =      1   max aug-charges    IRDMAX= 242367
   dimension x,y,z NGX =    60 NGY =   60 NGZ =   40
   dimension x,y,z NGXF=   120 NGYF=  120 NGZF=   80
   support grid    NGXF=   240 NGYF=  240 NGZF=  160
   ions per type =               8   4
   NGX,Y,Z   is equivalent  to a cutoff of  14.24, 14.49, 13.71 a.u.
   NGXF,Y,Z  is equivalent  to a cutoff of  28.48, 28.98, 27.42 a.u.

 SYSTEM =  unknown system                          
 POSCAR =  # Compound: Ag8Se4. Old comment: Ag2Se p

 Startparameter for this run:
   NWRITE =      2    write-flag & timer
   PREC   = accura    normal or accurate (medium, high low for compatibility)
   ISTART =      0    job   : 0-new  1-cont  2-samecut
   ICHARG =      2    charge: 1-file 2-atom 10-const
   ISPIN  =      1    spin polarized calculation?
   LNONCOLLINEAR =      F non collinear calculations
   LSORBIT =      F    spin-orbit coupling
   INIWAV =      1    electr: 0-lowe 1-rand  2-diag
   LASPH  =      T    aspherical Exc in radial PAW
   METAGGA=      F    non-selfconsistent MetaGGA calc.

 Electronic Relaxation 1
   ENCUT  =  650.0 eV  47.77 Ry    6.91 a.u.  14.56 14.31 10.08*2*pi/ulx,y,z
   ENINI  =  650.0     initial cutoff
   ENAUG  =  446.8 eV  augmentation charge cutoff
   NELM   =    200;   NELMIN=  8; NELMDL= -5     # of ELM steps 
   EDIFF  = 0.1E-07   stopping-criterion for ELM
   LREAL  =      F    real-space projection
   NLSPLINE    = F    spline interpolate recip. space projectors
   LCOMPAT=      F    compatible to vasp.4.4
   GGA_COMPAT  = T    GGA compatible to vasp.4.4-vasp.4.6
   LMAXPAW     = -100 max onsite density
   LMAXMIX     =    2 max onsite mixed and CHGCAR
   VOSKOWN=      0    Vosko Wilk Nusair interpolation
   ROPT   =    0.00000   0.00000
 Ionic relaxation
   EDIFFG = 0.1E-06   stopping-criterion for IOM
   NSW    =      0    number of steps for IOM
   NBLOCK =      1;   KBLOCK =      1    inner block; outer block 
   IBRION =     -1    ionic relax: 0-MD 1-quasi-New 2-CG
   NFREE  =      0    steps in history (QN), initial steepest desc. (CG)
   ISIF   =      3    stress and relaxation
   IWAVPR =     10    prediction:  0-non 1-charg 2-wave 3-comb
   ISYM   =      0    0-nonsym 1-usesym 2-fastsym
   LCORR  =      T    Harris-Foulkes like correction to forces

   POTIM  = 0.5000    time-step for ionic-motion
   TEIN   =    0.0    initial temperature
   TEBEG  =    0.0;   TEEND  =   0.0 temperature during run
   SMASS  =  -3.00    Nose mass-parameter (am)
   estimated Nose-frequenzy (Omega)   =  0.10E-29 period in steps =****** mass=  -0.112E-26a.u.
   SCALEE = 1.0000    scale energy and forces
   NPACO  =    256;   APACO  = 16.0  distance and # of slots for P.C.
   PSTRESS=    0.0 pullay stress

  Mass of Ions in am
   POMASS = 107.87 78.96
  Ionic Valenz
   ZVAL   =  11.00  6.00
  Atomic Wigner-Seitz radii
   RWIGS  =  -1.00 -1.00
  virtual crystal weights 
   VCA    =   1.00  1.00
   NELECT =     112.0000    total number of electrons
   NUPDOWN=      -1.0000    fix difference up-down

 DOS related values:
   EMIN   =  10.00;   EMAX   =-10.00  energy-range for DOS
   EFERMI =   0.00
   ISMEAR =     0;   SIGMA  =   0.05  broadening in eV -4-tet -1-fermi 0-gaus

 Electronic relaxation 2 (details)
   IALGO  =     38    algorithm
   LDIAG  =      T    sub-space diagonalisation (order eigenvalues)
   LSUBROT=      F    optimize rotation matrix (better conditioning)
   TURBO    =      0    0=normal 1=particle mesh
   IRESTART =      0    0=no restart 2=restart with 2 vectors
   NREBOOT  =      0    no. of reboots
   NMIN     =      0    reboot dimension
   EREF     =   0.00    reference energy to select bands
   IMIX   =      4    mixing-type and parameters
     AMIX     =   0.40;   BMIX     =  1.00
     AMIX_MAG =   1.60;   BMIX_MAG =  1.00
     AMIN     =   0.10
     WC   =   100.;   INIMIX=   1;  MIXPRE=   1;  MAXMIX= -45

 Intra band minimization:
   WEIMIN = 0.0000     energy-eigenvalue tresh-hold
   EBREAK =  0.31E-10  absolut break condition
   DEPER  =   0.30     relativ break condition  

   TIME   =   0.40     timestep for ELM

  volume/ion in A,a.u.               =      19.49       131.52
  Fermi-wavevector in a.u.,A,eV,Ry     =   1.280824  2.420406 22.320485  1.640509
  Thomas-Fermi vector in A             =   2.413229
 
 Write flags
   LWAVE        =      F    write WAVECAR
   LDOWNSAMPLE  =      F    k-point downsampling of WAVECAR
   LCHARG       =      T    write CHGCAR
   LVTOT        =      F    write LOCPOT, total local potential
   LVHAR        =      F    write LOCPOT, Hartree potential only
   LELF         =      F    write electronic localiz. function (ELF)
   LORBIT       =      0    0 simple, 1 ext, 2 COOP (PROOUT), +10 PAW based schemes


 Dipole corrections
   LMONO  =      F    monopole corrections only (constant potential shift)
   LDIPOL =      F    correct potential (dipole corrections)
   IDIPOL =      0    1-x, 2-y, 3-z, 4-all directions 
   EPSILON=  1.0000000 bulk dielectric constant

 Exchange correlation treatment:
   GGA     =    PS    GGA type
   LEXCH   =    14    internal setting for exchange type
   VOSKOWN=      0    Vosko Wilk Nusair interpolation
   LHFCALC =     F    Hartree Fock is set to
   LHFONE  =     F    Hartree Fock one center treatment
   AEXX    =    0.0000 exact exchange contribution

 Linear response parameters
   LEPSILON=     T    determine dielectric tensor
   LRPA    =     F    only Hartree local field effects (RPA)
   LNABLA  =     F    use nabla operator in PAW spheres
   LVEL    =     F    velocity operator in full k-point grid
   LINTERFAST=   F  fast interpolation
   KINTER  =     0    interpolate to denser k-point grid
   CSHIFT  =0.1000    complex shift for real part using Kramers Kronig
   OMEGAMAX=  -1.0    maximum frequency
   DEG_THRESHOLD= 0.2000000E-02 threshold for treating states as degnerate
   RTIME   =   -0.100 relaxation time in fs
  (WPLASMAI=    0.000 imaginary part of plasma frequency in eV, 0.658/RTIME)
   DFIELD  = 0.0000000 0.0000000 0.0000000 field for delta impulse in time
 
 Orbital magnetization related:
   ORBITALMAG=     F  switch on orbital magnetization
   LCHIMAG   =     F  perturbation theory with respect to B field
   DQ        =  0.001000  dq finite difference perturbation B field
   LLRAUG    =     F  two centre corrections for induced B field



--------------------------------------------------------------------------------------------------------


 Static calculation
 charge density and potential will be updated during run
 non-spin polarized calculation
 Variant of blocked Davidson
 Davidson routine will perform the subspace rotation
 perform sub-space diagonalisation
    after iterative eigenvector-optimisation
 modified Broyden-mixing scheme, WC =      100.0
 initial mixing is a Kerker type mixing with AMIX =  0.4000 and BMIX =      1.0000
 Hartree-type preconditioning will be used
 using additional bands           24
 reciprocal scheme for non local part
 use partial core corrections
 calculate Harris-corrections to forces 
   (improved forces if not selfconsistent)
 use gradient corrections 
 use of overlap-Matrix (Vanderbilt PP)
 Gauss-broadening in eV      SIGMA  =   0.05


--------------------------------------------------------------------------------------------------------


  energy-cutoff  :      650.00
  volume of cell :      233.87
      direct lattice vectors                 reciprocal lattice vectors
     7.005197990  0.000695690  0.000000000     0.142751139  0.000015574  0.000000000
    -0.000750980  6.883455460  0.000000000    -0.000014427  0.145275871  0.000000000
     0.000000000  0.000000000  4.850064620     0.000000000  0.000000000  0.206182820

  length of vectors
     7.005198025  6.883455501  4.850064620     0.142751139  0.145275872  0.206182820


 
 k-points in units of 2pi/SCALE and weight: # No comment                            
   0.00000000  0.00000000  0.00000000       0.010
   0.03568778  0.00000389  0.00000000       0.021
   0.07137557  0.00000779  0.00000000       0.010
  -0.00000361  0.03631897  0.00000000       0.021
   0.03568418  0.03632286  0.00000000       0.021
   0.07137196  0.03632675  0.00000000       0.021
  -0.03569139  0.03631507  0.00000000       0.021
  -0.00000721  0.07263794  0.00000000       0.010
   0.03568057  0.07264183  0.00000000       0.021
   0.07136836  0.07264572  0.00000000       0.010
   0.00000000  0.00000000  0.03436380       0.021
   0.03568778  0.00000389  0.03436380       0.021
   0.07137557  0.00000779  0.03436380       0.021
  -0.03568778 -0.00000389  0.03436380       0.021
  -0.00000361  0.03631897  0.03436380       0.021
   0.03568418  0.03632286  0.03436380       0.021
   0.07137196  0.03632675  0.03436380       0.021
  -0.03569139  0.03631507  0.03436380       0.021
  -0.00000721  0.07263794  0.03436380       0.021
   0.03568057  0.07264183  0.03436380       0.021
   0.07136836  0.07264572  0.03436380       0.021
  -0.03569500  0.07263404  0.03436380       0.021
   0.00000361 -0.03631897  0.03436380       0.021
   0.03569139 -0.03631507  0.03436380       0.021
   0.07137918 -0.03631118  0.03436380       0.021
  -0.03568418 -0.03632286  0.03436380       0.021
   0.00000000  0.00000000  0.06872761       0.021
   0.03568778  0.00000389  0.06872761       0.021
   0.07137557  0.00000779  0.06872761       0.021
  -0.03568778 -0.00000389  0.06872761       0.021
  -0.00000361  0.03631897  0.06872761       0.021
   0.03568418  0.03632286  0.06872761       0.021
   0.07137196  0.03632675  0.06872761       0.021
  -0.03569139  0.03631507  0.06872761       0.021
  -0.00000721  0.07263794  0.06872761       0.021
   0.03568057  0.07264183  0.06872761       0.021
   0.07136836  0.07264572  0.06872761       0.021
  -0.03569500  0.07263404  0.06872761       0.021
   0.00000361 -0.03631897  0.06872761       0.021
   0.03569139 -0.03631507  0.06872761       0.021
   0.07137918 -0.03631118  0.06872761       0.021
  -0.03568418 -0.03632286  0.06872761       0.021
   0.00000000  0.00000000  0.10309141       0.010
   0.03568778  0.00000389  0.10309141       0.021
   0.07137557  0.00000779  0.10309141       0.010
  -0.00000361  0.03631897  0.10309141       0.021
   0.03568418  0.03632286  0.10309141       0.021
   0.07137196  0.03632675  0.10309141       0.021
  -0.03569139  0.03631507  0.10309141       0.021
  -0.00000721  0.07263794  0.10309141       0.010
   0.03568057  0.07264183  0.10309141       0.021
   0.07136836  0.07264572  0.10309141       0.010
 
 k-points in reciprocal lattice and weights: # No comment                            
   0.00000000  0.00000000  0.00000000       0.010
   0.25000000 -0.00000000  0.00000000       0.021
   0.50000000 -0.00000000  0.00000000       0.010
   0.00000000  0.25000000  0.00000000       0.021
   0.25000000  0.25000000  0.00000000       0.021
   0.50000000  0.25000000  0.00000000       0.021
  -0.25000000  0.25000000  0.00000000       0.021
   0.00000000  0.50000000  0.00000000       0.010
   0.25000000  0.50000000  0.00000000       0.021
   0.50000000  0.50000000  0.00000000       0.010
   0.00000000  0.00000000  0.16666667       0.021
   0.25000000 -0.00000000  0.16666667       0.021
   0.50000000 -0.00000000  0.16666667       0.021
  -0.25000000  0.00000000  0.16666667       0.021
   0.00000000  0.25000000  0.16666667       0.021
   0.25000000  0.25000000  0.16666667       0.021
   0.50000000  0.25000000  0.16666667       0.021
  -0.25000000  0.25000000  0.16666667       0.021
   0.00000000  0.50000000  0.16666667       0.021
   0.25000000  0.50000000  0.16666667       0.021
   0.50000000  0.50000000  0.16666667       0.021
  -0.25000000  0.50000000  0.16666667       0.021
   0.00000000 -0.25000000  0.16666667       0.021
   0.25000000 -0.25000000  0.16666667       0.021
   0.50000000 -0.25000000  0.16666667       0.021
  -0.25000000 -0.25000000  0.16666667       0.021
   0.00000000  0.00000000  0.33333333       0.021
   0.25000000 -0.00000000  0.33333333       0.021
   0.50000000 -0.00000000  0.33333333       0.021
  -0.25000000  0.00000000  0.33333333       0.021
   0.00000000  0.25000000  0.33333333       0.021
   0.25000000  0.25000000  0.33333333       0.021
   0.50000000  0.25000000  0.33333333       0.021
  -0.25000000  0.25000000  0.33333333       0.021
   0.00000000  0.50000000  0.33333333       0.021
   0.25000000  0.50000000  0.33333333       0.021
   0.50000000  0.50000000  0.33333333       0.021
  -0.25000000  0.50000000  0.33333333       0.021
   0.00000000 -0.25000000  0.33333333       0.021
   0.25000000 -0.25000000  0.33333333       0.021
   0.50000000 -0.25000000  0.33333333       0.021
  -0.25000000 -0.25000000  0.33333333       0.021
   0.00000000  0.00000000  0.50000000       0.010
   0.25000000 -0.00000000  0.50000000       0.021
   0.50000000 -0.00000000  0.50000000       0.010
   0.00000000  0.25000000  0.50000000       0.021
   0.25000000  0.25000000  0.50000000       0.021
   0.50000000  0.25000000  0.50000000       0.021
  -0.25000000  0.25000000  0.50000000       0.021
   0.00000000  0.50000000  0.50000000       0.010
   0.25000000  0.50000000  0.50000000       0.021
   0.50000000  0.50000000  0.50000000       0.010
 
 position of ions in fractional coordinates (direct lattice) 
   0.85975796  0.34334154  0.99743204
   0.14024204  0.65665846  0.99743204
   0.64024105  0.84334734  0.16923224
   0.35975895  0.15665266  0.16923224
   0.35975552  0.65664738  0.49742567
   0.64024448  0.34335262  0.49742567
   0.85975312  0.84334989  0.66923999
   0.14024688  0.15665011  0.66923999
   0.00000000  0.00000000  0.16438095
   0.50000000  0.00000000  0.66435618
   0.00000000  0.50000000  0.50231306
   0.50000000  0.50000000  0.00228996
 
 position of ions in cartesian coordinates  (Angst):
   6.02251689  2.36397432  4.83760985
   0.98193012  4.52017683  4.83760985
   4.48438198  5.80558926  0.82078730
   2.52006503  1.07856189  0.82078730
   2.51966552  4.52025327  2.41254664
   4.48478149  2.36389788  2.41254664
   6.02210749  5.80575953  3.24585720
   0.98233952  1.07839162  3.24585720
   0.00000000  0.00000000  0.79725823
   3.50259900  0.00034785  3.22217040
  -0.00037549  3.44172773  2.43625080
   3.50222350  3.44207558  0.01110645
 


--------------------------------------------------------------------------------------------------------


 k-point  1 :   0.0000 0.0000 0.0000  plane waves:    8793
 k-point  2 :   0.2500-0.0000 0.0000  plane waves:    8817
 k-point  3 :   0.5000-0.0000 0.0000  plane waves:    8782
 k-point  4 :   0.0000 0.2500 0.0000  plane waves:    8785
 k-point  5 :   0.2500 0.2500 0.0000  plane waves:    8790
 k-point  6 :   0.5000 0.2500 0.0000  plane waves:    8770
 k-point  7 :  -0.2500 0.2500 0.0000  plane waves:    8790
 k-point  8 :   0.0000 0.5000 0.0000  plane waves:    8764
 k-point  9 :   0.2500 0.5000 0.0000  plane waves:    8778
 k-point 10 :   0.5000 0.5000 0.0000  plane waves:    8784
 k-point 11 :   0.0000 0.0000 0.1667  plane waves:    8798
 k-point 12 :   0.2500-0.0000 0.1667  plane waves:    8800
 k-point 13 :   0.5000-0.0000 0.1667  plane waves:    8778
 k-point 14 :  -0.2500 0.0000 0.1667  plane waves:    8800
 k-point 15 :   0.0000 0.2500 0.1667  plane waves:    8810
 k-point 16 :   0.2500 0.2500 0.1667  plane waves:    8788
 k-point 17 :   0.5000 0.2500 0.1667  plane waves:    8804
 k-point 18 :  -0.2500 0.2500 0.1667  plane waves:    8789
 k-point 19 :   0.0000 0.5000 0.1667  plane waves:    8808
 k-point 20 :   0.2500 0.5000 0.1667  plane waves:    8802
 k-point 21 :   0.5000 0.5000 0.1667  plane waves:    8784
 k-point 22 :  -0.2500 0.5000 0.1667  plane waves:    8802
 k-point 23 :   0.0000-0.2500 0.1667  plane waves:    8810
 k-point 24 :   0.2500-0.2500 0.1667  plane waves:    8789
 k-point 25 :   0.5000-0.2500 0.1667  plane waves:    8804
 k-point 26 :  -0.2500-0.2500 0.1667  plane waves:    8788
 k-point 27 :   0.0000 0.0000 0.3333  plane waves:    8812
 k-point 28 :   0.2500-0.0000 0.3333  plane waves:    8807
 k-point 29 :   0.5000-0.0000 0.3333  plane waves:    8804
 k-point 30 :  -0.2500 0.0000 0.3333  plane waves:    8807
 k-point 31 :   0.0000 0.2500 0.3333  plane waves:    8823
 k-point 32 :   0.2500 0.2500 0.3333  plane waves:    8805
 k-point 33 :   0.5000 0.2500 0.3333  plane waves:    8798
 k-point 34 :  -0.2500 0.2500 0.3333  plane waves:    8804
 k-point 35 :   0.0000 0.5000 0.3333  plane waves:    8792
 k-point 36 :   0.2500 0.5000 0.3333  plane waves:    8826
 k-point 37 :   0.5000 0.5000 0.3333  plane waves:    8792
 k-point 38 :  -0.2500 0.5000 0.3333  plane waves:    8826
 k-point 39 :   0.0000-0.2500 0.3333  plane waves:    8823
 k-point 40 :   0.2500-0.2500 0.3333  plane waves:    8804
 k-point 41 :   0.5000-0.2500 0.3333  plane waves:    8798
 k-point 42 :  -0.2500-0.2500 0.3333  plane waves:    8805
 k-point 43 :   0.0000 0.0000 0.5000  plane waves:    8804
 k-point 44 :   0.2500-0.0000 0.5000  plane waves:    8788
 k-point 45 :   0.5000-0.0000 0.5000  plane waves:    8848
 k-point 46 :   0.0000 0.2500 0.5000  plane waves:    8824
 k-point 47 :   0.2500 0.2500 0.5000  plane waves:    8814
 k-point 48 :   0.5000 0.2500 0.5000  plane waves:    8800
 k-point 49 :  -0.2500 0.2500 0.5000  plane waves:    8814
 k-point 50 :   0.0000 0.5000 0.5000  plane waves:    8816
 k-point 51 :   0.2500 0.5000 0.5000  plane waves:    8812
 k-point 52 :   0.5000 0.5000 0.5000  plane waves:    8832

 maximum and minimum number of plane-waves per node :      8848     8764

 maximum number of plane-waves:      8848
 maximum index in each direction: 
   IXMAX=   14   IYMAX=   14   IZMAX=   10
   IXMIN=  -15   IYMIN=  -14   IZMIN=  -10


 serial   3D FFT for wavefunctions
 parallel 3D FFT for charge:
    minimum data exchange during FFTs selected (reduces bandwidth)


 total amount of memory used by VASP MPI-rank0   212928. kBytes
=======================================================================

   base      :      30000. kBytes
   nonl-proj :     134388. kBytes
   fftplans  :       9103. kBytes
   grid      :       9100. kBytes
   one-center:        186. kBytes
   wavefun   :      30151. kBytes
 
     INWAV:  cpu time    0.0001: real time    0.0004
 Broyden mixing: mesh for mixing (old mesh)
   NGX = 29   NGY = 29   NGZ = 21
  (NGX  =120   NGY  =120   NGZ  = 80)
  gives a total of  17661 points

 initial charge density was supplied:
 charge density of overlapping atoms calculated
 number of electron     112.0000000 magnetization 
 keeping initial charge density in first step


--------------------------------------------------------------------------------------------------------


 Maximum index for augmentation-charges        11982 (set IRDMAX)


--------------------------------------------------------------------------------------------------------


 First call to EWALD:  gamma=   0.288
 Maximum number of real-space cells 2x 3x 3
 Maximum number of reciprocal cells 3x 3x 2

    FEWALD:  cpu time    0.0012: real time    0.0028


--------------------------------------- Iteration      1(   1)  ---------------------------------------


    POTLOK:  cpu time    0.0288: real time    0.0392
    SETDIJ:  cpu time    0.1636: real time    0.1669
     EDDAV:  cpu time    5.8821: real time    5.9903
       DOS:  cpu time    0.0015: real time    0.0050
    --------------------------------------------
      LOOP:  cpu time    6.0761: real time    6.2015

 eigenvalue-minimisations  :  8320
 total energy-change (2. order) : 0.7766529E+03  (-0.6209163E+04)
 number of electron     112.0000000 magnetization 
 augmentation part      112.0000000 magnetization 

 Free energy of the ion-electron system (eV)
  ---------------------------------------------------
  alpha Z        PSCENC =       407.58152855
  Ewald energy   TEWEN  =     -8236.92972663
  -Hartree energ DENC   =     -2149.09166720
  -exchange      EXHF   =         0.00000000
  -V(xc)+E(xc)   XCENC  =       -74.15520054
  PAW double counting   =      8857.22817157    -8441.54974434
  entropy T*S    EENTRO =        -0.00687704
  eigenvalues    EBANDS =      1090.07822562
  atomic energy  EATOM  =      9323.49817503
  Solvation  Ediel_sol  =         0.00000000
  ---------------------------------------------------
  free energy    TOTEN  =       776.65288502 eV

  energy without entropy =      776.65976206  energy(sigma->0) =      776.65632354


--------------------------------------------------------------------------------------------------------




--------------------------------------- Iteration      1(   2)  ---------------------------------------


     EDDAV:  cpu time    6.0210: real time    6.0410
       DOS:  cpu time    0.0008: real time    0.0008
    --------------------------------------------
      LOOP:  cpu time    6.0218: real time    6.0418

 eigenvalue-minimisations  :  9380
 total energy-change (2. order) :-0.7914192E+03  (-0.7526200E+03)
 number of electron     112.0000000 magnetization 
 augmentation part      112.0000000 magnetization 

 Free energy of the ion-electron system (eV)
  ---------------------------------------------------
  alpha Z        PSCENC =       407.58152855
  Ewald energy   TEWEN  =     -8236.92972663
  -Hartree energ DENC   =     -2149.09166720
  -exchange      EXHF   =         0.00000000
  -V(xc)+E(xc)   XCENC  =       -74.15520054
  PAW double counting   =      8857.22817157    -8441.54974434
  entropy T*S    EENTRO =        -0.00116658
  eigenvalues    EBANDS =       298.65332234
  atomic energy  EATOM  =      9323.49817503
  Solvation  Ediel_sol  =         0.00000000
  ---------------------------------------------------
  free energy    TOTEN  =       -14.76630780 eV

  energy without entropy =      -14.76514122  energy(sigma->0) =      -14.76572451


--------------------------------------------------------------------------------------------------------




--------------------------------------- Iteration      1(   3)  ---------------------------------------


     EDDAV:  cpu time    6.4625: real time    6.4820
       DOS:  cpu time    0.0008: real time    0.0008
    --------------------------------------------
      LOOP:  cpu time    6.4633: real time    6.4828

 eigenvalue-minimisations  : 10220
 total energy-change (2. order) :-0.2966400E+02  (-0.2942259E+02)
 number of electron     112.0000000 magnetization 
 augmentation part      112.0000000 magnetization 

 Free energy of the ion-electron system (eV)
  ---------------------------------------------------
  alpha Z        PSCENC =       407.58152855
  Ewald energy   TEWEN  =     -8236.92972663
  -Hartree energ DENC   =     -2149.09166720
  -exchange      EXHF   =         0.00000000
  -V(xc)+E(xc)   XCENC  =       -74.15520054
  PAW double counting   =      8857.22817157    -8441.54974434
  entropy T*S    EENTRO =        -0.00045242
  eigenvalues    EBANDS =       268.98860706
  atomic energy  EATOM  =      9323.49817503
  Solvation  Ediel_sol  =         0.00000000
  ---------------------------------------------------
  free energy    TOTEN  =       -44.43030893 eV

  energy without entropy =      -44.42985651  energy(sigma->0) =      -44.43008272


--------------------------------------------------------------------------------------------------------




--------------------------------------- Iteration      1(   4)  ---------------------------------------


     EDDAV:  cpu time    5.5732: real time    5.5910
       DOS:  cpu time    0.0008: real time    0.0008
    --------------------------------------------
      LOOP:  cpu time    5.5741: real time    5.5919

 eigenvalue-minimisations  :  8480
 total energy-change (2. order) :-0.2062256E+00  (-0.2061999E+00)
 number of electron     112.0000000 magnetization 
 augmentation part      112.0000000 magnetization 

 Free energy of the ion-electron system (eV)
  ---------------------------------------------------
  alpha Z        PSCENC =       407.58152855
  Ewald energy   TEWEN  =     -8236.92972663
  -Hartree energ DENC   =     -2149.09166720
  -exchange      EXHF   =         0.00000000
  -V(xc)+E(xc)   XCENC  =       -74.15520054
  PAW double counting   =      8857.22817157    -8441.54974434
  entropy T*S    EENTRO =        -0.00045504
  eigenvalues    EBANDS =       268.78238413
  atomic energy  EATOM  =      9323.49817503
  Solvation  Ediel_sol  =         0.00000000
  ---------------------------------------------------
  free energy    TOTEN  =       -44.63653448 eV

  energy without entropy =      -44.63607944  energy(sigma->0) =      -44.63630696


--------------------------------------------------------------------------------------------------------




--------------------------------------- Iteration      1(   5)  ---------------------------------------


     EDDAV:  cpu time    6.5056: real time    6.5246
       DOS:  cpu time    0.0008: real time    0.0008
    CHARGE:  cpu time    0.2784: real time    0.2839
    MIXING:  cpu time    0.0012: real time    0.0042
    --------------------------------------------
      LOOP:  cpu time    6.7860: real time    6.8134

 eigenvalue-minimisations  : 10300
 total energy-change (2. order) :-0.1627334E-02  (-0.1627312E-02)
 number of electron     112.0000002 magnetization 
 augmentation part       36.2099250 magnetization 

 Broyden mixing:
  rms(total) = 0.16694E+01    rms(broyden)= 0.16694E+01
  rms(prec ) = 0.20854E+01
  weight for this iteration     100.00

 Free energy of the ion-electron system (eV)
  ---------------------------------------------------
  alpha Z        PSCENC =       407.58152855
  Ewald energy   TEWEN  =     -8236.92972663
  -Hartree energ DENC   =     -2149.09166720
  -exchange      EXHF   =         0.00000000
  -V(xc)+E(xc)   XCENC  =       -74.15520054
  PAW double counting   =      8857.22817157    -8441.54974434
  entropy T*S    EENTRO =        -0.00045510
  eigenvalues    EBANDS =       268.78075685
  atomic energy  EATOM  =      9323.49817503
  Solvation  Ediel_sol  =         0.00000000
  ---------------------------------------------------
  free energy    TOTEN  =       -44.63816181 eV

  energy without entropy =      -44.63770671  energy(sigma->0) =      -44.63793426


--------------------------------------------------------------------------------------------------------




--------------------------------------- Iteration      1(   6)  ---------------------------------------


    POTLOK:  cpu time    0.0229: real time    0.0253
    SETDIJ:  cpu time    0.1533: real time    0.1536
     EDDAV:  cpu time    6.0792: real time    6.0953
       DOS:  cpu time    0.0009: real time    0.0009
    CHARGE:  cpu time    0.2761: real time    0.2767
    MIXING:  cpu time    0.0013: real time    0.0037
    --------------------------------------------
      LOOP:  cpu time    6.5337: real time    6.5555

 eigenvalue-minimisations  :  9460
 total energy-change (2. order) : 0.2506514E+01  (-0.8521546E+00)
 number of electron     112.0000002 magnetization 
 augmentation part       37.8577290 magnetization 

 Broyden mixing:
  rms(total) = 0.12786E+01    rms(broyden)= 0.12786E+01
  rms(prec ) = 0.12868E+01
  weight for this iteration     100.00

 eigenvalues of (default mixing * dielectric matrix)
  average eigenvalue GAMMA=   1.1344
  1.1344

 Free energy of the ion-electron system (eV)
  ---------------------------------------------------
  alpha Z        PSCENC =       407.58152855
  Ewald energy   TEWEN  =     -8236.92972663
  -Hartree energ DENC   =     -2064.96721397
  -exchange      EXHF   =         0.00000000
  -V(xc)+E(xc)   XCENC  =       -76.61411593
  PAW double counting   =      9295.72233583    -8884.64531016
  entropy T*S    EENTRO =        -0.00129298
  eigenvalues    EBANDS =       194.22397286
  atomic energy  EATOM  =      9323.49817503
  Solvation  Ediel_sol  =         0.00000000
  ---------------------------------------------------
  free energy    TOTEN  =       -42.13164740 eV

  energy without entropy =      -42.13035441  energy(sigma->0) =      -42.13100091


--------------------------------------------------------------------------------------------------------




--------------------------------------- Iteration      1(   7)  ---------------------------------------


    POTLOK:  cpu time    0.0225: real time    0.0261
    SETDIJ:  cpu time    0.1530: real time    0.1534
     EDDAV:  cpu time    6.0538: real time    6.0711
       DOS:  cpu time    0.0011: real time    0.0011
    CHARGE:  cpu time    0.3137: real time    0.3144
    MIXING:  cpu time    0.0011: real time    0.0011
    --------------------------------------------
      LOOP:  cpu time    6.5452: real time    6.5672

 eigenvalue-minimisations  :  9060
 total energy-change (2. order) : 0.1772122E-02  (-0.7301240E-01)
 number of electron     112.0000002 magnetization 
 augmentation part       37.8661399 magnetization 

 Broyden mixing:
  rms(total) = 0.67192E+00    rms(broyden)= 0.67192E+00
  rms(prec ) = 0.67990E+00
  weight for this iteration     100.00

 eigenvalues of (default mixing * dielectric matrix)
  average eigenvalue GAMMA=   1.5983
  0.9948  2.2018

 Free energy of the ion-electron system (eV)
  ---------------------------------------------------
  alpha Z        PSCENC =       407.58152855
  Ewald energy   TEWEN  =     -8236.92972663
  -Hartree energ DENC   =     -2062.71985179
  -exchange      EXHF   =         0.00000000
  -V(xc)+E(xc)   XCENC  =       -76.65218324
  PAW double counting   =      9666.25859233    -9259.85498010
  entropy T*S    EENTRO =        -0.00128073
  eigenvalues    EBANDS =       196.68985131
  atomic energy  EATOM  =      9323.49817503
  Solvation  Ediel_sol  =         0.00000000
  ---------------------------------------------------
  free energy    TOTEN  =       -42.12987528 eV

  energy without entropy =      -42.12859454  energy(sigma->0) =      -42.12923491


--------------------------------------------------------------------------------------------------------




--------------------------------------- Iteration      1(   8)  ---------------------------------------


    POTLOK:  cpu time    0.0250: real time    0.0272
    SETDIJ:  cpu time    0.1662: real time    0.1666
     EDDAV:  cpu time    6.3213: real time    6.3391
       DOS:  cpu time    0.0009: real time    0.0009
    CHARGE:  cpu time    0.2757: real time    0.2763
    MIXING:  cpu time    0.0011: real time    0.0011
    --------------------------------------------
      LOOP:  cpu time    6.7903: real time    6.8113

 eigenvalue-minimisations  :  9620
 total energy-change (2. order) : 0.3514158E-01  (-0.3910270E-02)
 number of electron     112.0000002 magnetization 
 augmentation part       37.7979200 magnetization 

 Broyden mixing:
  rms(total) = 0.60707E-01    rms(broyden)= 0.60706E-01
  rms(prec ) = 0.72551E-01
  weight for this iteration     100.00

 eigenvalues of (default mixing * dielectric matrix)
  average eigenvalue GAMMA=   1.4772
  2.4162  1.0076  1.0076

 Free energy of the ion-electron system (eV)
  ---------------------------------------------------
  alpha Z        PSCENC =       407.58152855
  Ewald energy   TEWEN  =     -8236.92972663
  -Hartree energ DENC   =     -2057.43960545
  -exchange      EXHF   =         0.00000000
  -V(xc)+E(xc)   XCENC  =       -76.79758438
  PAW double counting   =     10143.33731855    -9742.13666613
  entropy T*S    EENTRO =        -0.00123562
  eigenvalues    EBANDS =       196.79306239
  atomic energy  EATOM  =      9323.49817503
  Solvation  Ediel_sol  =         0.00000000
  ---------------------------------------------------
  free energy    TOTEN  =       -42.09473369 eV

  energy without entropy =      -42.09349807  energy(sigma->0) =      -42.09411588


--------------------------------------------------------------------------------------------------------




--------------------------------------- Iteration      1(   9)  ---------------------------------------


    POTLOK:  cpu time    0.0225: real time    0.0250
    SETDIJ:  cpu time    0.1543: real time    0.1547
     EDDAV:  cpu time    6.2312: real time    6.2474
       DOS:  cpu time    0.0009: real time    0.0009
    CHARGE:  cpu time    0.2778: real time    0.2784
    MIXING:  cpu time    0.0009: real time    0.0009
    --------------------------------------------
      LOOP:  cpu time    6.6876: real time    6.7074

 eigenvalue-minimisations  :  9760
 total energy-change (2. order) : 0.2566364E-02  (-0.7717517E-03)
 number of electron     112.0000002 magnetization 
 augmentation part       37.8365405 magnetization 

 Broyden mixing:
  rms(total) = 0.15898E-01    rms(broyden)= 0.15898E-01
  rms(prec ) = 0.17224E-01
  weight for this iteration     100.00

 eigenvalues of (default mixing * dielectric matrix)
  average eigenvalue GAMMA=   1.6512
  0.9969  0.9969  2.0389  2.5723

 Free energy of the ion-electron system (eV)
  ---------------------------------------------------
  alpha Z        PSCENC =       407.58152855
  Ewald energy   TEWEN  =     -8236.92972663
  -Hartree energ DENC   =     -2054.79438215
  -exchange      EXHF   =         0.00000000
  -V(xc)+E(xc)   XCENC  =       -76.86753966
  PAW double counting   =     10191.98950443    -9791.30552163
  entropy T*S    EENTRO =        -0.00126903
  eigenvalues    EBANDS =       194.73706377
  atomic energy  EATOM  =      9323.49817503
  Solvation  Ediel_sol  =         0.00000000
  ---------------------------------------------------
  free energy    TOTEN  =       -42.09216733 eV

  energy without entropy =      -42.09089830  energy(sigma->0) =      -42.09153281


--------------------------------------------------------------------------------------------------------




--------------------------------------- Iteration      1(  10)  ---------------------------------------


    POTLOK:  cpu time    0.0223: real time    0.0252
    SETDIJ:  cpu time    0.1570: real time    0.1574
     EDDAV:  cpu time    6.0099: real time    6.0257
       DOS:  cpu time    0.0009: real time    0.0009
    CHARGE:  cpu time    0.2768: real time    0.2774
    MIXING:  cpu time    0.0011: real time    0.0011
    --------------------------------------------
      LOOP:  cpu time    6.4681: real time    6.4877

 eigenvalue-minimisations  :  9320
 total energy-change (2. order) :-0.8311170E-04  (-0.1307741E-03)
 number of electron     112.0000002 magnetization 
 augmentation part       37.8411706 magnetization 

 Broyden mixing:
  rms(total) = 0.59280E-02    rms(broyden)= 0.59279E-02
  rms(prec ) = 0.68097E-02
  weight for this iteration     100.00

 eigenvalues of (default mixing * dielectric matrix)
  average eigenvalue GAMMA=   1.6043
  2.4441  2.4441  1.0181  1.0181  1.0973

 Free energy of the ion-electron system (eV)
  ---------------------------------------------------
  alpha Z        PSCENC =       407.58152855
  Ewald energy   TEWEN  =     -8236.92972663
  -Hartree energ DENC   =     -2054.76457025
  -exchange      EXHF   =         0.00000000
  -V(xc)+E(xc)   XCENC  =       -76.86864143
  PAW double counting   =     10189.58775126    -9788.96607254
  entropy T*S    EENTRO =        -0.00127159
  eigenvalues    EBANDS =       194.77057717
  atomic energy  EATOM  =      9323.49817503
  Solvation  Ediel_sol  =         0.00000000
  ---------------------------------------------------
  free energy    TOTEN  =       -42.09225044 eV

  energy without entropy =      -42.09097885  energy(sigma->0) =      -42.09161464


--------------------------------------------------------------------------------------------------------




--------------------------------------- Iteration      1(  11)  ---------------------------------------


    POTLOK:  cpu time    0.0225: real time    0.0249
    SETDIJ:  cpu time    0.1548: real time    0.1551
     EDDAV:  cpu time    6.0274: real time    6.0433
       DOS:  cpu time    0.0008: real time    0.0008
    CHARGE:  cpu time    0.2815: real time    0.2821
    MIXING:  cpu time    0.0013: real time    0.0013
    --------------------------------------------
      LOOP:  cpu time    6.4883: real time    6.5074

 eigenvalue-minimisations  :  9320
 total energy-change (2. order) : 0.1285736E-04  (-0.6524926E-05)
 number of electron     112.0000002 magnetization 
 augmentation part       37.8387756 magnetization 

 Broyden mixing:
  rms(total) = 0.14277E-02    rms(broyden)= 0.14275E-02
  rms(prec ) = 0.16546E-02
  weight for this iteration     100.00

 eigenvalues of (default mixing * dielectric matrix)
  average eigenvalue GAMMA=   1.5695
  2.6417  2.3620  1.0251  1.0251  1.1816  1.1816

 Free energy of the ion-electron system (eV)
  ---------------------------------------------------
  alpha Z        PSCENC =       407.58152855
  Ewald energy   TEWEN  =     -8236.92972663
  -Hartree energ DENC   =     -2054.86250273
  -exchange      EXHF   =         0.00000000
  -V(xc)+E(xc)   XCENC  =       -76.86941648
  PAW double counting   =     10186.22814984    -9785.58432940
  entropy T*S    EENTRO =        -0.00126864
  eigenvalues    EBANDS =       194.84715287
  atomic energy  EATOM  =      9323.49817503
  Solvation  Ediel_sol  =         0.00000000
  ---------------------------------------------------
  free energy    TOTEN  =       -42.09223758 eV

  energy without entropy =      -42.09096895  energy(sigma->0) =      -42.09160326


--------------------------------------------------------------------------------------------------------




--------------------------------------- Iteration      1(  12)  ---------------------------------------


    POTLOK:  cpu time    0.0238: real time    0.0255
    SETDIJ:  cpu time    0.1542: real time    0.1545
     EDDAV:  cpu time    6.2196: real time    6.2359
       DOS:  cpu time    0.0008: real time    0.0008
    CHARGE:  cpu time    0.2766: real time    0.2772
    MIXING:  cpu time    0.0012: real time    0.0012
    --------------------------------------------
      LOOP:  cpu time    6.6762: real time    6.6951

 eigenvalue-minimisations  :  9700
 total energy-change (2. order) :-0.5666352E-06  (-0.1021084E-05)
 number of electron     112.0000002 magnetization 
 augmentation part       37.8392385 magnetization 

 Broyden mixing:
  rms(total) = 0.53743E-03    rms(broyden)= 0.53693E-03
  rms(prec ) = 0.63080E-03
  weight for this iteration     100.00

 eigenvalues of (default mixing * dielectric matrix)
  average eigenvalue GAMMA=   1.6346
  2.8626  2.4523  1.8518  1.0313  1.0313  0.9723  1.2405

 Free energy of the ion-electron system (eV)
  ---------------------------------------------------
  alpha Z        PSCENC =       407.58152855
  Ewald energy   TEWEN  =     -8236.92972663
  -Hartree energ DENC   =     -2054.80462562
  -exchange      EXHF   =         0.00000000
  -V(xc)+E(xc)   XCENC  =       -76.87139495
  PAW double counting   =     10187.43062462    -9786.79115187
  entropy T*S    EENTRO =        -0.00126910
  eigenvalues    EBANDS =       194.79560182
  atomic energy  EATOM  =      9323.49817503
  Solvation  Ediel_sol  =         0.00000000
  ---------------------------------------------------
  free energy    TOTEN  =       -42.09223815 eV

  energy without entropy =      -42.09096905  energy(sigma->0) =      -42.09160360


--------------------------------------------------------------------------------------------------------




--------------------------------------- Iteration      1(  13)  ---------------------------------------


    POTLOK:  cpu time    0.0226: real time    0.0253
    SETDIJ:  cpu time    0.1559: real time    0.1563
     EDDAV:  cpu time    6.2677: real time    6.2846
       DOS:  cpu time    0.0009: real time    0.0009
    CHARGE:  cpu time    0.3157: real time    0.3164
    MIXING:  cpu time    0.0012: real time    0.0012
    --------------------------------------------
      LOOP:  cpu time    6.7641: real time    6.7848

 eigenvalue-minimisations  :  9540
 total energy-change (2. order) : 0.3832010E-06  (-0.5758152E-07)
 number of electron     112.0000002 magnetization 
 augmentation part       37.8389334 magnetization 

 Broyden mixing:
  rms(total) = 0.10927E-03    rms(broyden)= 0.10675E-03
  rms(prec ) = 0.11257E-03
  weight for this iteration     100.00

 eigenvalues of (default mixing * dielectric matrix)
  average eigenvalue GAMMA=   1.6090
  2.7698  2.5519  2.2737  1.0381  1.0381  0.9811  1.1098  1.1098

 Free energy of the ion-electron system (eV)
  ---------------------------------------------------
  alpha Z        PSCENC =       407.58152855
  Ewald energy   TEWEN  =     -8236.92972663
  -Hartree energ DENC   =     -2054.82418803
  -exchange      EXHF   =         0.00000000
  -V(xc)+E(xc)   XCENC  =       -76.87087791
  PAW double counting   =     10187.52308801    -9786.87853825
  entropy T*S    EENTRO =        -0.00126893
  eigenvalues    EBANDS =       194.80957040
  atomic energy  EATOM  =      9323.49817503
  Solvation  Ediel_sol  =         0.00000000
  ---------------------------------------------------
  free energy    TOTEN  =       -42.09223777 eV

  energy without entropy =      -42.09096884  energy(sigma->0) =      -42.09160330


--------------------------------------------------------------------------------------------------------




--------------------------------------- Iteration      1(  14)  ---------------------------------------


    POTLOK:  cpu time    0.0239: real time    0.0258
    SETDIJ:  cpu time    0.1658: real time    0.1662
     EDDAV:  cpu time    6.2749: real time    6.2968
       DOS:  cpu time    0.0009: real time    0.0009
    CHARGE:  cpu time    0.2787: real time    0.2793
    MIXING:  cpu time    0.0012: real time    0.0012
    --------------------------------------------
      LOOP:  cpu time    6.7454: real time    6.7701

 eigenvalue-minimisations  :  9520
 total energy-change (2. order) : 0.5334005E-07  (-0.8834590E-08)
 number of electron     112.0000002 magnetization 
 augmentation part       37.8388826 magnetization 

 Broyden mixing:
  rms(total) = 0.60322E-04    rms(broyden)= 0.55628E-04
  rms(prec ) = 0.61336E-04
  weight for this iteration     100.00

 eigenvalues of (default mixing * dielectric matrix)
  average eigenvalue GAMMA=   1.6585
  2.8699  2.5805  2.3268  1.7317  1.4158  1.0243  1.0243  0.9765  0.9765

 Free energy of the ion-electron system (eV)
  ---------------------------------------------------
  alpha Z        PSCENC =       407.58152855
  Ewald energy   TEWEN  =     -8236.92972663
  -Hartree energ DENC   =     -2054.82754886
  -exchange      EXHF   =         0.00000000
  -V(xc)+E(xc)   XCENC  =       -76.87071868
  PAW double counting   =     10187.65070478    -9787.00533371
  entropy T*S    EENTRO =        -0.00126892
  eigenvalues    EBANDS =       194.81195073
  atomic energy  EATOM  =      9323.49817503
  Solvation  Ediel_sol  =         0.00000000
  ---------------------------------------------------
  free energy    TOTEN  =       -42.09223771 eV

  energy without entropy =      -42.09096879  energy(sigma->0) =      -42.09160325


--------------------------------------------------------------------------------------------------------




--------------------------------------- Iteration      1(  15)  ---------------------------------------


    POTLOK:  cpu time    0.0225: real time    0.0254
    SETDIJ:  cpu time    0.1529: real time    0.1532
     EDDAV:  cpu time    4.3158: real time    4.3280
       DOS:  cpu time    0.0009: real time    0.0009
    --------------------------------------------
      LOOP:  cpu time    4.4921: real time    4.5075

 eigenvalue-minimisations  :  5660
 total energy-change (2. order) : 0.8203642E-08  (-0.3625145E-09)
 number of electron     112.0000002 magnetization 
 augmentation part       37.8388826 magnetization 

 Free energy of the ion-electron system (eV)
  ---------------------------------------------------
  alpha Z        PSCENC =       407.58152855
  Ewald energy   TEWEN  =     -8236.92972663
  -Hartree energ DENC   =     -2054.82772345
  -exchange      EXHF   =         0.00000000
  -V(xc)+E(xc)   XCENC  =       -76.87073527
  PAW double counting   =     10187.70781783    -9787.06265468
  entropy T*S    EENTRO =        -0.00126891
  eigenvalues    EBANDS =       194.81234983
  atomic energy  EATOM  =      9323.49817503
  Solvation  Ediel_sol  =         0.00000000
  ---------------------------------------------------
  free energy    TOTEN  =       -42.09223770 eV

  energy without entropy =      -42.09096880  energy(sigma->0) =      -42.09160325


--------------------------------------------------------------------------------------------------------




 average (electrostatic) potential at core
  the test charge radii are     1.1249  1.0808
  (the norm of the test charge is              1.0000)
       1 -72.3264       2 -72.3264       3 -72.3264       4 -72.3264       5 -72.3264
       6 -72.3264       7 -72.3264       8 -72.3264       9 -52.1175      10 -52.1175
      11 -52.1175      12 -52.1175
 
 
 
 E-fermi :   6.2645     XC(G=0): -11.2462     alpha+bet :-11.5241


 k-point     1 :       0.0000    0.0000    0.0000
  band No.  band energies     occupation 
      1      -7.4639      2.00000
      2      -6.9476      2.00000
      3      -6.8238      2.00000
      4      -6.6844      2.00000
      5      -0.3461      2.00000
      6       0.2821      2.00000
      7       0.3229      2.00000
      8       0.5972      2.00000
      9       0.6017      2.00000
     10       0.7485      2.00000
     11       0.8022      2.00000
     12       0.8951      2.00000
     13       0.9204      2.00000
     14       1.1996      2.00000
     15       1.3653      2.00000
     16       1.3962      2.00000
     17       1.4060      2.00000
     18       1.4408      2.00000
     19       1.4461      2.00000
     20       1.5306      2.00000
     21       1.7686      2.00000
     22       1.7934      2.00000
     23       1.9068      2.00000
     24       1.9116      2.00000
     25       1.9446      2.00000
     26       2.0660      2.00000
     27       2.0918      2.00000
     28       2.1673      2.00000
     29       2.1692      2.00000
     30       2.1745      2.00000
     31       2.1847      2.00000
     32       2.2318      2.00000
     33       2.3297      2.00000
     34       2.4382      2.00000
     35       2.5184      2.00000
     36       2.7467      2.00000
     37       2.7563      2.00000
     38       2.8239      2.00000
     39       2.8749      2.00000
     40       2.8798      2.00000
     41       2.9371      2.00000
     42       2.9967      2.00000
     43       3.0186      2.00000
     44       3.0389      2.00000
     45       3.0402      2.00000
     46       3.2905      2.00000
     47       3.7358      2.00000
     48       4.1917      2.00000
     49       4.3528      2.00000
     50       4.6577      2.00000
     51       4.7471      2.00000
     52       5.2274      2.00000
     53       5.7981      2.00000
     54       5.8715      2.00000
     55       5.9464      2.00000
     56       6.2205      1.78627
     57       6.5285      0.00000
     58       6.6536      0.00000
     59       6.7228      0.00000
     60       7.3951      0.00000
     61       7.9769      0.00000
     62       9.1948      0.00000
     63      10.6510      0.00000
     64      10.8529      0.00000
     65      11.1895      0.00000
     66      11.7790      0.00000
     67      11.9142      0.00000
     68      12.6073      0.00000
     69      12.6694      0.00000
     70      13.4267      0.00000
     71      13.9635      0.00000
     72      14.0003      0.00000
     73      14.2789      0.00000
     74      14.4151      0.00000
     75      14.6090      0.00000
     76      14.7864      0.00000
     77      14.7867      0.00000
     78      15.1610      0.00000
     79      15.1798      0.00000
     80      15.4755      0.00000

 k-point     2 :       0.2500   -0.0000    0.0000
  band No.  band energies     occupation 
      1      -7.3931      2.00000
      2      -7.0284      2.00000
      3      -6.8037      2.00000
      4      -6.7051      2.00000
      5      -0.2006      2.00000
      6       0.2696      2.00000
      7       0.2770      2.00000
      8       0.4867      2.00000
      9       0.6272      2.00000
     10       0.7421      2.00000
     11       0.8499      2.00000
     12       0.8687      2.00000
     13       0.9045      2.00000
     14       1.2455      2.00000
     15       1.2665      2.00000
     16       1.3024      2.00000
     17       1.3024      2.00000
     18       1.4309      2.00000
     19       1.4899      2.00000
     20       1.4992      2.00000
     21       1.7588      2.00000
     22       1.7955      2.00000
     23       1.8353      2.00000
     24       1.9034      2.00000
     25       1.9316      2.00000
     26       1.9600      2.00000
     27       2.0948      2.00000
     28       2.1177      2.00000
     29       2.1637      2.00000
     30       2.1861      2.00000
     31       2.3513      2.00000
     32       2.4061      2.00000
     33       2.4872      2.00000
     34       2.5583      2.00000
     35       2.5729      2.00000
     36       2.6862      2.00000
     37       2.7172      2.00000
     38       2.8194      2.00000
     39       2.8610      2.00000
     40       2.9335      2.00000
     41       2.9528      2.00000
     42       2.9656      2.00000
     43       3.0153      2.00000
     44       3.0685      2.00000
     45       3.1974      2.00000
     46       3.2699      2.00000
     47       3.8511      2.00000
     48       4.0101      2.00000
     49       4.0885      2.00000
     50       4.3893      2.00000
     51       4.7814      2.00000
     52       5.0899      2.00000
     53       5.5924      2.00000
     54       5.8344      2.00000
     55       5.9597      2.00000
     56       6.1304      1.99985
     57       6.7219      0.00000
     58       6.7997      0.00000
     59       7.5425      0.00000
     60       8.0358      0.00000
     61       8.2197      0.00000
     62       9.5947      0.00000
     63      10.2268      0.00000
     64      10.4083      0.00000
     65      10.7930      0.00000
     66      11.3231      0.00000
     67      12.0345      0.00000
     68      12.0769      0.00000
     69      12.5050      0.00000
     70      12.9483      0.00000
     71      13.1184      0.00000
     72      13.3250      0.00000
     73      13.6536      0.00000
     74      13.7299      0.00000
     75      14.5207      0.00000
     76      14.8387      0.00000
     77      15.4307      0.00000
     78      15.4370      0.00000
     79      15.4964      0.00000
     80      16.5181      0.00000

 k-point     3 :       0.5000   -0.0000    0.0000
  band No.  band energies     occupation 
      1      -7.2157      2.00000
      2      -7.2157      2.00000
      3      -6.7547      2.00000
      4      -6.7547      2.00000
      5       0.1596      2.00000
      6       0.1596      2.00000
      7       0.2367      2.00000
      8       0.2367      2.00000
      9       0.7207      2.00000
     10       0.7207      2.00000
     11       0.8977      2.00000
     12       0.8978      2.00000
     13       0.9459      2.00000
     14       0.9459      2.00000
     15       1.2242      2.00000
     16       1.2242      2.00000
     17       1.4366      2.00000
     18       1.4366      2.00000
     19       1.4516      2.00000
     20       1.4516      2.00000
     21       1.7183      2.00000
     22       1.7183      2.00000
     23       1.8326      2.00000
     24       1.8327      2.00000
     25       2.0220      2.00000
     26       2.0220      2.00000
     27       2.0301      2.00000
     28       2.0301      2.00000
     29       2.2123      2.00000
     30       2.2123      2.00000
     31       2.5441      2.00000
     32       2.5441      2.00000
     33       2.6553      2.00000
     34       2.6554      2.00000
     35       2.7036      2.00000
     36       2.7036      2.00000
     37       2.7469      2.00000
     38       2.7469      2.00000
     39       2.8500      2.00000
     40       2.8500      2.00000
     41       2.8515      2.00000
     42       2.8515      2.00000
     43       3.0079      2.00000
     44       3.0079      2.00000
     45       3.4443      2.00000
     46       3.4443      2.00000
     47       3.5615      2.00000
     48       3.5615      2.00000
     49       4.6226      2.00000
     50       4.6226      2.00000
     51       4.7534      2.00000
     52       4.7535      2.00000
     53       5.2268      2.00000
     54       5.2268      2.00000
     55       6.1646      1.99526
     56       6.1646      1.99526
     57       7.0197      0.00000
     58       7.0197      0.00000
     59       8.5205      0.00000
     60       8.5205      0.00000
     61       9.2845      0.00000
     62       9.2846      0.00000
     63       9.8070      0.00000
     64       9.8070      0.00000
     65      10.6463      0.00000
     66      10.6463      0.00000
     67      11.8232      0.00000
     68      11.8233      0.00000
     69      12.2649      0.00000
     70      12.2649      0.00000
     71      12.6970      0.00000
     72      12.6970      0.00000
     73      13.7269      0.00000
     74      13.7270      0.00000
     75      14.2476      0.00000
     76      14.2476      0.00000
     77      15.3529      0.00000
     78      15.3529      0.00000
     79      16.7013      0.00000
     80      16.7014      0.00000

 k-point     4 :       0.0000    0.2500    0.0000
  band No.  band energies     occupation 
      1      -7.3797      2.00000
      2      -6.9287      2.00000
      3      -6.9101      2.00000
      4      -6.7240      2.00000
      5      -0.1968      2.00000
      6       0.3603      2.00000
      7       0.3718      2.00000
      8       0.5372      2.00000
      9       0.5645      2.00000
     10       0.6347      2.00000
     11       0.8060      2.00000
     12       0.8700      2.00000
     13       0.9009      2.00000
     14       1.2245      2.00000
     15       1.2837      2.00000
     16       1.2871      2.00000
     17       1.3265      2.00000
     18       1.4791      2.00000
     19       1.6048      2.00000
     20       1.6555      2.00000
     21       1.7000      2.00000
     22       1.7325      2.00000
     23       1.8949      2.00000
     24       1.9029      2.00000
     25       1.9317      2.00000
     26       1.9731      2.00000
     27       2.0392      2.00000
     28       2.0478      2.00000
     29       2.1439      2.00000
     30       2.2567      2.00000
     31       2.3182      2.00000
     32       2.3620      2.00000
     33       2.3915      2.00000
     34       2.4126      2.00000
     35       2.6061      2.00000
[...]
    LRDIIS:  cpu time    6.4954: real time    6.5091
    LRDIAG:  cpu time    0.2157: real time    0.2162
    MIXING:  cpu time    0.0013: real time    0.0013
    --------------------------------------------
      LOOP:  cpu time    9.3446: real time    9.3643

 Broyden mixing:
  rms(total) = 0.35555E-05    rms(broyden)= 0.35555E-05
  rms(prec ) = 0.35809E-05
  weight for this iteration     100.00

 eigenvalues of (default mixing * dielectric matrix)
  average eigenvalue GAMMA=   1.5249
  2.8607  2.6106  2.3182  2.1657  1.7350  1.5970  0.9656  1.0304  1.0304  0.9963
  0.6381  0.3513

 Free energy of the ion-electron system (eV)
  ---------------------------------------------------
  -Hartree energ DENC   =        -0.55733030
  -V(xc)+E(xc)   XCENC  =         0.02511678
  PAW double counting   =         1.43407904       -1.48720782
  entropy T*S    EENTRO =         0.00000000
  eigenvalues    EBANDS =       -13.70323361
  ---------------------------------------------------
  free energy    TOTEN  =       -14.28857590 eV

  energy without entropy =      -14.28857590


----------------------------------------- Iteration    3(  15)  ---------------------------------------


   POT+DIJ:  cpu time    0.3362: real time    0.3369
    HAMIL1:  cpu time    1.4987: real time    1.5019
    LRDIAG:  cpu time    0.2191: real time    0.2196
    LRDIIS:  cpu time    6.3087: real time    6.3218
    LRDIAG:  cpu time    0.2177: real time    0.2182
    MIXING:  cpu time    0.0014: real time    0.0014
    --------------------------------------------
      LOOP:  cpu time    9.1547: real time    9.1739

 Broyden mixing:
  rms(total) = 0.52511E-05    rms(broyden)= 0.52511E-05
  rms(prec ) = 0.52634E-05
  weight for this iteration     100.00

 eigenvalues of (default mixing * dielectric matrix)
  average eigenvalue GAMMA=   1.4729
  2.8715  2.6086  2.2454  2.2454  1.8451  1.6008  1.1008  1.0103  1.0008  0.9489
  0.9155  0.5197  0.2355

 Free energy of the ion-electron system (eV)
  ---------------------------------------------------
  -Hartree energ DENC   =        -0.55733019
  -V(xc)+E(xc)   XCENC  =         0.02511678
  PAW double counting   =         1.43407810       -1.48720685
  entropy T*S    EENTRO =         0.00000000
  eigenvalues    EBANDS =       -13.70336170
  ---------------------------------------------------
  free energy    TOTEN  =       -14.28870386 eV

  energy without entropy =      -14.28870386


----------------------------------------- Iteration    3(  16)  ---------------------------------------


   POT+DIJ:  cpu time    0.3358: real time    0.3365
    HAMIL1:  cpu time    1.5010: real time    1.5043
    LRDIAG:  cpu time    0.2197: real time    0.2202
    LRDIIS:  cpu time    6.4527: real time    6.4666
    LRDIAG:  cpu time    0.2512: real time    0.2518
    MIXING:  cpu time    0.0014: real time    0.0014
    --------------------------------------------
      LOOP:  cpu time    9.4081: real time    9.4284

 Broyden mixing:
  rms(total) = 0.35693E-05    rms(broyden)= 0.35693E-05
  rms(prec ) = 0.35739E-05
  weight for this iteration     100.00

 eigenvalues of (default mixing * dielectric matrix)
  average eigenvalue GAMMA=   1.4152
  2.8751  2.6026  2.2074  2.2074  2.0075  1.6034  1.2595  0.9768  0.9768  0.9957
  0.9957  0.6148  0.3420  0.1473

 Free energy of the ion-electron system (eV)
  ---------------------------------------------------
  -Hartree energ DENC   =        -0.55733017
  -V(xc)+E(xc)   XCENC  =         0.02511678
  PAW double counting   =         1.43407837       -1.48720712
  entropy T*S    EENTRO =         0.00000000
  eigenvalues    EBANDS =       -13.70329378
  ---------------------------------------------------
  free energy    TOTEN  =       -14.28863591 eV

  energy without entropy =      -14.28863591


----------------------------------------- Iteration    3(  17)  ---------------------------------------


   POT+DIJ:  cpu time    0.3750: real time    0.3759
    HAMIL1:  cpu time    1.4983: real time    1.5016
    LRDIAG:  cpu time    0.2189: real time    0.2194
    LRDIIS:  cpu time    6.2930: real time    6.3065
    LRDIAG:  cpu time    0.2158: real time    0.2163
    MIXING:  cpu time    0.0013: real time    0.0013
    --------------------------------------------
      LOOP:  cpu time    9.1740: real time    9.1937

 Broyden mixing:
  rms(total) = 0.47355E-05    rms(broyden)= 0.47355E-05
  rms(prec ) = 0.47408E-05
  weight for this iteration     100.00

 eigenvalues of (default mixing * dielectric matrix)
  average eigenvalue GAMMA=   1.3321
  2.8720  2.6092  2.1877  2.1877  1.9713  1.6054  1.2265  1.0185  0.9825  0.9806
  0.9806  0.6203  0.3905  0.2468  0.1016

 Free energy of the ion-electron system (eV)
  ---------------------------------------------------
  -Hartree energ DENC   =        -0.55733020
  -V(xc)+E(xc)   XCENC  =         0.02511678
  PAW double counting   =         1.43407923       -1.48720797
  entropy T*S    EENTRO =         0.00000000
  eigenvalues    EBANDS =       -13.70343510
  ---------------------------------------------------
  free energy    TOTEN  =       -14.28877726 eV

  energy without entropy =      -14.28877726


----------------------------------------- Iteration    3(  18)  ---------------------------------------


   POT+DIJ:  cpu time    0.3351: real time    0.3358
    HAMIL1:  cpu time    1.5017: real time    1.5048
    LRDIAG:  cpu time    0.2191: real time    0.2196
    LRDIIS:  cpu time    6.2996: real time    6.3129
    LRDIAG:  cpu time    0.2165: real time    0.2170
    MIXING:  cpu time    0.0013: real time    0.0013
    --------------------------------------------
      LOOP:  cpu time    9.1439: real time    9.1632

 Broyden mixing:
  rms(total) = 0.38196E-05    rms(broyden)= 0.38196E-05
  rms(prec ) = 0.38229E-05
  weight for this iteration     100.00

 eigenvalues of (default mixing * dielectric matrix)
  average eigenvalue GAMMA=   1.2599
  2.8719  2.6087  2.2484  2.0900  1.9550  1.6073  1.1881  1.0286  0.9819  0.9758
  0.9758  0.6410  0.3770  0.3770  0.0658  0.1656

 Free energy of the ion-electron system (eV)
  ---------------------------------------------------
  -Hartree energ DENC   =        -0.55733020
  -V(xc)+E(xc)   XCENC  =         0.02511678
  PAW double counting   =         1.43407957       -1.48720832
  entropy T*S    EENTRO =         0.00000000
  eigenvalues    EBANDS =       -13.70346734
  ---------------------------------------------------
  free energy    TOTEN  =       -14.28880951 eV

  energy without entropy =      -14.28880951


----------------------------------------- Iteration    3(  19)  ---------------------------------------


   POT+DIJ:  cpu time    0.3350: real time    0.3357
    HAMIL1:  cpu time    1.5056: real time    1.5088
    LRDIAG:  cpu time    0.2304: real time    0.2309
    LRDIIS:  cpu time    6.2870: real time    6.3003
    LRDIAG:  cpu time    0.2178: real time    0.2183
    MIXING:  cpu time    0.0015: real time    0.0015
    --------------------------------------------
      LOOP:  cpu time    9.1506: real time    9.1700

 Broyden mixing:
  rms(total) = 0.46966E-05    rms(broyden)= 0.46966E-05
  rms(prec ) = 0.47010E-05
  weight for this iteration     100.00

 eigenvalues of (default mixing * dielectric matrix)
  average eigenvalue GAMMA=   1.2035
  2.8756  2.6145  2.2442  2.0388  2.0388  1.6069  1.2386  1.0233  0.9815  0.9827
  0.9827  0.5663  0.4192  0.4192  0.2479  0.0562  0.1230

 Free energy of the ion-electron system (eV)
  ---------------------------------------------------
  -Hartree energ DENC   =        -0.55733021
  -V(xc)+E(xc)   XCENC  =         0.02511678
  PAW double counting   =         1.43408005       -1.48720879
  entropy T*S    EENTRO =         0.00000000
  eigenvalues    EBANDS =       -13.70343433
  ---------------------------------------------------
  free energy    TOTEN  =       -14.28877650 eV

  energy without entropy =      -14.28877650


----------------------------------------- Iteration    3(  20)  ---------------------------------------


   POT+DIJ:  cpu time    0.3364: real time    0.3371
    HAMIL1:  cpu time    1.5003: real time    1.5035
    LRDIAG:  cpu time    0.2195: real time    0.2200
    LRDIIS:  cpu time    6.2773: real time    6.2905
    LRDIAG:  cpu time    0.2158: real time    0.2162
    MIXING:  cpu time    0.0016: real time    0.0016
    --------------------------------------------
      LOOP:  cpu time    9.1475: real time    9.1668

 Broyden mixing:
  rms(total) = 0.40836E-05    rms(broyden)= 0.40836E-05
  rms(prec ) = 0.40863E-05
  weight for this iteration     100.00

 eigenvalues of (default mixing * dielectric matrix)
  average eigenvalue GAMMA=   1.1602
  2.8739  2.6195  2.2642  2.0985  1.9255  1.6030  1.1616  1.0272  0.9809  0.9755
  0.9755  0.6320  0.6320  0.4827  0.2475  0.2310  0.0479  0.1051

 Free energy of the ion-electron system (eV)
  ---------------------------------------------------
  -Hartree energ DENC   =        -0.55733020
  -V(xc)+E(xc)   XCENC  =         0.02511678
  PAW double counting   =         1.43408048       -1.48720922
  entropy T*S    EENTRO =         0.00000000
  eigenvalues    EBANDS =       -13.70335782
  ---------------------------------------------------
  free energy    TOTEN  =       -14.28869999 eV

  energy without entropy =      -14.28869999


----------------------------------------- Iteration    3(  21)  ---------------------------------------


   POT+DIJ:  cpu time    0.3599: real time    0.3607
    HAMIL1:  cpu time    1.5895: real time    1.5930
    LRDIAG:  cpu time    0.2455: real time    0.2460
    LRDIIS:  cpu time    6.3494: real time    6.3629
    LRDIAG:  cpu time    0.2161: real time    0.2166
    MIXING:  cpu time    0.0015: real time    0.0015
    --------------------------------------------
      LOOP:  cpu time    9.3339: real time    9.3539

 Broyden mixing:
  rms(total) = 0.47661E-05    rms(broyden)= 0.47661E-05
  rms(prec ) = 0.47702E-05
  weight for this iteration     100.00

 eigenvalues of (default mixing * dielectric matrix)
  average eigenvalue GAMMA=   1.1085
  2.8743  2.6183  2.2590  2.0830  1.9482  1.6044  1.1672  1.0269  0.9810  0.9764
  0.9764  0.6905  0.6905  0.4889  0.2680  0.2391  0.0087  0.1105  0.0503

 Free energy of the ion-electron system (eV)
  ---------------------------------------------------
  -Hartree energ DENC   =        -0.55733020
  -V(xc)+E(xc)   XCENC  =         0.02511678
  PAW double counting   =         1.43408043       -1.48720917
  entropy T*S    EENTRO =         0.00000000
  eigenvalues    EBANDS =       -13.70327162
  ---------------------------------------------------
  free energy    TOTEN  =       -14.28861379 eV

  energy without entropy =      -14.28861379


----------------------------------------- Iteration    3(  22)  ---------------------------------------


   POT+DIJ:  cpu time    0.3351: real time    0.3358
    HAMIL1:  cpu time    1.4989: real time    1.5020
    LRDIAG:  cpu time    0.2189: real time    0.2194
    LRDIIS:  cpu time    6.2792: real time    6.2925
    LRDIAG:  cpu time    0.2177: real time    0.2182
    MIXING:  cpu time    0.0018: real time    0.0018
    --------------------------------------------
      LOOP:  cpu time    9.1233: real time    9.1427

 Broyden mixing:
  rms(total) = 0.44266E-05    rms(broyden)= 0.44266E-05
  rms(prec ) = 0.44290E-05
  weight for this iteration     100.00

 eigenvalues of (default mixing * dielectric matrix)
  average eigenvalue GAMMA=   1.0779
  2.8811  2.6290  2.2356  2.1994  2.1994  1.6013  1.3866  0.9738  0.9738  1.0087
  0.9890  0.6745  0.4870  0.4870  0.4044  0.1084  0.1084  0.1519  0.0047  0.0537

 Free energy of the ion-electron system (eV)
  ---------------------------------------------------
  -Hartree energ DENC   =        -0.55733020
  -V(xc)+E(xc)   XCENC  =         0.02511678
  PAW double counting   =         1.43408044       -1.48720918
  entropy T*S    EENTRO =         0.00000000
  eigenvalues    EBANDS =       -13.70335092
  ---------------------------------------------------
  free energy    TOTEN  =       -14.28869308 eV

  energy without entropy =      -14.28869308


------------------------ aborting loop because EDIFF is reached ----------------------------------------


 change of polarisation eV/A/(eV/A) component  3 :    -0.000     0.000    28.006
 dielectric tensor                  component  3 :    -0.000     0.000    22.669


--------------------------------------------------------------------------------------------------------


    FORLOC:  cpu time    0.0036: real time    0.0036
    FORNL :  cpu time    2.2939: real time    2.2991
    STRESS:  cpu time    6.0772: real time    6.0902
    FORCOR:  cpu time    0.0224: real time    0.0225
    OFIELD:  cpu time    0.0001: real time    0.0001
    FORLOC:  cpu time    0.0036: real time    0.0036
    FORNL :  cpu time    2.2923: real time    2.2973
    STRESS:  cpu time    6.0693: real time    6.0822
    FORCOR:  cpu time    0.0225: real time    0.0225
    OFIELD:  cpu time    0.0001: real time    0.0001
    FORNLD:  cpu time    4.4333: real time    4.4431

 PIEZOELECTRIC TENSOR FIELD DIRECTION 3  (e Angst)
 -----------------------------------------------------------------------------
    -0.00235  0.00076  0.00103           (  0.00049 -0.00005  0.00004)
     0.00077  0.00715 -0.00759           ( -0.00005  0.00045 -0.00014)
     0.00103 -0.00759 -0.00903           (  0.00004 -0.00014  0.00039)

 PIEZOELECTRIC TENSOR FIELD DIRECTION 3  (C/m^2)
 -----------------------------------------------------------------------------
    -0.00016  0.00005  0.00007
     0.00005  0.00049 -0.00052
     0.00007 -0.00052 -0.00062


      POSITION         DIRECTION 3           BORN EFFECTIVE CHARGE    (rigid.aug.   ionic)
 -----------------------------------------------------------------------------------------
      6.02252      2.36397      4.83761    -0.00147  0.09252  1.49284 ( -5.29131 11.00000)
      0.98193      4.52018      4.83761     0.00230 -0.09374  1.49185 ( -5.29131 11.00000)
      4.48438      5.80559      0.82079    -0.00406 -0.09127  1.49184 ( -5.29131 11.00000)
      2.52007      1.07856      0.82079     0.00473  0.09267  1.49099 ( -5.29131 11.00000)
      2.51967      4.52025      2.41255    -0.00234 -0.09396  1.49211 ( -5.29131 11.00000)
      4.48478      2.36390      2.41255     0.00168  0.09257  1.49294 ( -5.29131 11.00000)
      6.02211      5.80576      3.24586     0.00413 -0.09141  1.49222 ( -5.29131 11.00000)
      0.98234      1.07839      3.24586    -0.00496  0.09263  1.49121 ( -5.29131 11.00000)
      0.00000      0.00000      0.79726     0.00456  0.00059 -2.94666 (  1.12289  6.00000)
      3.50260      0.00035      3.22217    -0.00464  0.00048 -2.94686 (  1.12289  6.00000)
     -0.00038      3.44173      2.43625    -0.00456 -0.00056 -2.94478 (  1.12289  6.00000)
      3.50222      3.44208      0.01111     0.00466 -0.00050 -2.94490 (  1.12289  6.00000)
 -----------------------------------------------------------------------------------------
    total drift (improves with k-points):   0.00002  0.00002  0.15282




--------------------------------------------------------------------------------------------------------




 MACROSCOPIC STATIC DIELECTRIC TENSOR (including local field effects in DFT)
 ------------------------------------------------------
          59.204896     0.006899    -0.000010
           0.005957    21.689638     0.000000
           0.000014    -0.000002    22.668872
 ------------------------------------------------------



--------------------------------------------------------------------------------------------------------




--------------------------------------------------------------------------------------------------------




 MACROSCOPIC STATIC DIELECTRIC TENSOR (including local field effects in DFT)
 ------------------------------------------------------
          59.204896     0.006899    -0.000010
           0.005957    21.689638     0.000000
           0.000014    -0.000002    22.668872
 ------------------------------------------------------


 PIEZOELECTRIC TENSOR  for field in x, y, z        (e  Angst)
          XX          YY          ZZ          XY          YZ          ZX
  --------------------------------------------------------------------------------
  x    -0.00394    -0.00039     0.00428    -0.01203    -0.00098    -0.25468
  y     0.00057     0.00032     0.00361    -0.00597    -0.00805     0.00276
  z    -0.00235     0.00715    -0.00903     0.00077    -0.00759     0.00103

 PIEZOELECTRIC TENSOR  for field in x, y, z        (C/m^2)
          XX          YY          ZZ          XY          YZ          ZX
  --------------------------------------------------------------------------------
  x    -0.00027    -0.00003     0.00029    -0.00082    -0.00007    -0.01745
  y     0.00004     0.00002     0.00025    -0.00041    -0.00055     0.00019
  z    -0.00016     0.00049    -0.00062     0.00005    -0.00052     0.00007
 
 BORN EFFECTIVE CHARGES (in e, cummulative output)
 -------------------------------------------------
 ion    1
    1     1.22023    -0.28196    -0.11301
    2    -0.13053     1.49201    -0.13823
    3    -0.00147     0.09252     1.48011
 ion    2
    1     1.21989    -0.28430     0.11647
    2    -0.13133     1.49117     0.13886
    3     0.00230    -0.09374     1.47912
 ion    3
    1     1.21262     0.33680    -0.10263
    2     0.13175     1.49155     0.14125
    3    -0.00406    -0.09128     1.47910
 ion    4
    1     1.21212     0.33997     0.10732
    2     0.13080     1.49304    -0.13846
    3     0.00473     0.09267     1.47826
 ion    5
    1     1.21959     0.28470    -0.11740
    2     0.13010     1.49302     0.13722
    3    -0.00234    -0.09396     1.47938
 ion    6
    1     1.22008     0.28153     0.11270
    2     0.13106     1.49153    -0.14002
    3     0.00168     0.09257     1.48021
 ion    7
    1     1.21248    -0.33736     0.10347
    2    -0.13097     1.49317     0.13964
    3     0.00412    -0.09141     1.47948
 ion    8
    1     1.21213    -0.33970    -0.10693
    2    -0.13177     1.49233    -0.14027
    3    -0.00497     0.09263     1.47848
 ion    9
    1    -2.46532     0.02257    -0.00060
    2     0.38664    -2.98328     0.00006
    3     0.00456     0.00059    -2.95939
 ion   10
    1    -2.46407    -0.02170    -0.00074
    2    -0.38561    -2.98481    -0.00142
    3    -0.00465     0.00048    -2.95960
 ion   11
    1    -2.39939     0.13517     0.00059
    2     0.38210    -2.98513    -0.00005
    3    -0.00456    -0.00056    -2.95751
 ion   12
    1    -2.40038    -0.13572     0.00075
    2    -0.38225    -2.98460     0.00142
    3     0.00465    -0.00050    -2.95763


--------------------------------------------------------------------------------------------------------


     LOOP+:  cpu time 1001.2639: real time 1004.1398
    4ORBIT:  cpu time    0.0000: real time    0.0000

 total amount of memory used by VASP MPI-rank0   212928. kBytes
=======================================================================

   base      :      30000. kBytes
   nonl-proj :     134388. kBytes
   fftplans  :       9103. kBytes
   grid      :       9100. kBytes
   one-center:        186. kBytes
   wavefun   :      30151. kBytes
 
  
  
 General timing and accounting informations for this job:
 ========================================================
  
                  Total CPU time used (sec):     1005.740
                            User time (sec):      998.504
                          System time (sec):        7.236
                         Elapsed time (sec):     1009.368
  
                   Maximum memory used (kb):      618096.
                   Average memory used (kb):           0.
  
                          Minor page faults:       425766
                          Major page faults:           30
                 Voluntary context switches:        15205
