<?xml version="1.0" encoding="ISO-8859-1"?>
<modeling>
 <generator>
  <i name="program" type="string">vasp </i>
  <i name="version" type="string">5.4.4.18Apr17-6-g9f103f2a35  </i>
  <i name="subversion" type="string">(build Jul 30 2020 14:31:59) complex            parallel </i>
  <i name="platform" type="string">LinuxIFC </i>
  <i name="date" type="string">2021 02 03 </i>
  <i name="time" type="string">10:48:01 </i>
 </generator>
 <incar>
  <i type="string" name="PREC">accurate</i>
  <i type="string" name="ALGO"> normal</i>
  <i type="logical" name="ADDGRID"> T  </i>
  <i type="int" name="ISPIN">     1</i>
  <i type="int" name="NELM">   200</i>
  <i type="int" name="NELMIN">     8</i>
  <i name="EDIFF">      0.00000001</i>
  <i type="int" name="ISIF">     3</i>
  <i type="int" name="ISYM">     0</i>
  <i name="ENCUT">    650.00000000</i>
  <i type="logical" name="LREAL"> F  </i>
  <i type="int" name="ISMEAR">     0</i>
  <i name="SIGMA">      0.05000000</i>
  <i type="logical" name="LWAVE"> F  </i>
  <i type="logical" name="LASPH"> T  </i>
  <v type="int" name="KPOINT_BSE">    -1     0     0     0</v>
  <i type="int" name="NELM">   200</i>
  <i type="string" name="GGA"> ps</i>
  <i type="logical" name="LEPSILON"> T  </i>
  <i type="logical" name="LASPH"> T  </i>
 </incar>
 <structure name="primitive_cell" >
  <crystal>
   <varray name="basis" >
    <v>       7.00519799       0.00069569       0.00000000 </v>
    <v>      -0.00075098       6.88345546       0.00000000 </v>
    <v>       0.00000000       0.00000000       4.85006462 </v>
   </varray>
   <i name="volume">    233.86996502 </i>
   <varray name="rec_basis" >
    <v>       0.14275114       0.00001557       0.00000000 </v>
    <v>      -0.00001443       0.14527587       0.00000000 </v>
    <v>       0.00000000       0.00000000       0.20618282 </v>
   </varray>
  </crystal>
  <varray name="positions" >
   <v>      -0.14024204       0.34334154      -0.00256796 </v>
   <v>       0.00000000       0.00000000       0.16438095 </v>
   <v>      -0.50000000      -0.50000000       0.00228996 </v>
   <v>       0.00000000      -0.50000000      -0.49768694 </v>
   <v>       0.14024688       0.15665011      -0.33076001 </v>
   <v>      -0.35975552       0.34335262       0.49742567 </v>
   <v>       0.14024204      -0.34334154      -0.00256796 </v>
   <v>      -0.14024688      -0.15665011      -0.33076001 </v>
   <v>      -0.50000000       0.00000000      -0.33564382 </v>
   <v>       0.35975895       0.15665266       0.16923224 </v>
   <v>      -0.35975895      -0.15665266       0.16923224 </v>
   <v>       0.35975552      -0.34335262       0.49742567 </v>
  </varray>
 </structure>
 <varray name="primitive_index" >
  <v type="int" >        1 </v>
  <v type="int" >        9 </v>
  <v type="int" >       12 </v>
  <v type="int" >       11 </v>
  <v type="int" >        8 </v>
  <v type="int" >        6 </v>
  <v type="int" >        2 </v>
  <v type="int" >        7 </v>
  <v type="int" >       10 </v>
  <v type="int" >        4 </v>
  <v type="int" >        3 </v>
  <v type="int" >        5 </v>
 </varray>
 <kpoints>
  <generation param="Gamma">
   <v type="int" name="divisions">       4        4        6 </v>
   <v name="usershift">      0.00000000       0.00000000       0.00000000 </v>
   <v name="genvec1">      0.25000000       0.00000000       0.00000000 </v>
   <v name="genvec2">      0.00000000       0.25000000       0.00000000 </v>
   <v name="genvec3">      0.00000000       0.00000000       0.16666667 </v>
   <v name="shift">      0.00000000       0.00000000       0.00000000 </v>
  </generation>
  <varray name="kpointlist" >
   <v>       0.00000000       0.00000000       0.00000000 </v>
   <v>       0.25000000      -0.00000000       0.00000000 </v>
   <v>       0.50000000      -0.00000000       0.00000000 </v>
   <v>       0.00000000       0.25000000       0.00000000 </v>
   <v>       0.25000000       0.25000000       0.00000000 </v>
   <v>       0.50000000       0.25000000       0.00000000 </v>
   <v>      -0.25000000       0.25000000       0.00000000 </v>
   <v>       0.00000000       0.50000000       0.00000000 </v>
   <v>       0.25000000       0.50000000       0.00000000 </v>
   <v>       0.50000000       0.50000000       0.00000000 </v>
   <v>       0.00000000       0.00000000       0.16666667 </v>
   <v>       0.25000000      -0.00000000       0.16666667 </v>
   <v>       0.50000000      -0.00000000       0.16666667 </v>
   <v>      -0.25000000       0.00000000       0.16666667 </v>
   <v>       0.00000000       0.25000000       0.16666667 </v>
   <v>       0.25000000       0.25000000       0.16666667 </v>
   <v>       0.50000000       0.25000000       0.16666667 </v>
   <v>      -0.25000000       0.25000000       0.16666667 </v>
   <v>       0.00000000       0.50000000       0.16666667 </v>
   <v>       0.25000000       0.50000000       0.16666667 </v>
   <v>       0.50000000       0.50000000       0.16666667 </v>
   <v>      -0.25000000       0.50000000       0.16666667 </v>
   <v>       0.00000000      -0.25000000       0.16666667 </v>
   <v>       0.25000000      -0.25000000       0.16666667 </v>
   <v>       0.50000000      -0.25000000       0.16666667 </v>
   <v>      -0.25000000      -0.25000000       0.16666667 </v>
   <v>       0.00000000       0.00000000       0.33333333 </v>
   <v>       0.25000000      -0.00000000       0.33333333 </v>
   <v>       0.50000000      -0.00000000       0.33333333 </v>
   <v>      -0.25000000       0.00000000       0.33333333 </v>
   <v>       0.00000000       0.25000000       0.33333333 </v>
   <v>       0.25000000       0.25000000       0.33333333 </v>
   <v>       0.50000000       0.25000000       0.33333333 </v>
   <v>      -0.25000000       0.25000000       0.33333333 </v>
   <v>       0.00000000       0.50000000       0.33333333 </v>
   <v>       0.25000000       0.50000000       0.33333333 </v>
   <v>       0.50000000       0.50000000       0.33333333 </v>
   <v>      -0.25000000       0.50000000       0.33333333 </v>
   <v>       0.00000000      -0.25000000       0.33333333 </v>
   <v>       0.25000000      -0.25000000       0.33333333 </v>
   <v>       0.50000000      -0.25000000       0.33333333 </v>
   <v>      -0.25000000      -0.25000000       0.33333333 </v>
   <v>       0.00000000       0.00000000       0.50000000 </v>
   <v>       0.25000000      -0.00000000       0.50000000 </v>
   <v>       0.50000000      -0.00000000       0.50000000 </v>
   <v>       0.00000000       0.25000000       0.50000000 </v>
   <v>       0.25000000       0.25000000       0.50000000 </v>
   <v>       0.50000000       0.25000000       0.50000000 </v>
   <v>      -0.25000000       0.25000000       0.50000000 </v>
   <v>       0.00000000       0.50000000       0.50000000 </v>
   <v>       0.25000000       0.50000000       0.50000000 </v>
   <v>       0.50000000       0.50000000       0.50000000 </v>
  </varray>
  <varray name="weights" >
   <v>       0.01041667 </v>
   <v>       0.02083333 </v>
   <v>       0.01041667 </v>
   <v>       0.02083333 </v>
   <v>       0.02083333 </v>
   <v>       0.02083333 </v>
   <v>       0.02083333 </v>
   <v>       0.01041667 </v>
   <v>       0.02083333 </v>
   <v>       0.01041667 </v>
   <v>       0.02083333 </v>
   <v>       0.02083333 </v>
   <v>       0.02083333 </v>
   <v>       0.02083333 </v>
   <v>       0.02083333 </v>
   <v>       0.02083333 </v>
   <v>       0.02083333 </v>
   <v>       0.02083333 </v>
   <v>       0.02083333 </v>
   <v>       0.02083333 </v>
   <v>       0.02083333 </v>
   <v>       0.02083333 </v>
   <v>       0.02083333 </v>
   <v>       0.02083333 </v>
   <v>       0.02083333 </v>
   <v>       0.02083333 </v>
   <v>       0.02083333 </v>
   <v>       0.02083333 </v>
   <v>       0.02083333 </v>
   <v>       0.02083333 </v>
   <v>       0.02083333 </v>
   <v>       0.02083333 </v>
   <v>       0.02083333 </v>
   <v>       0.02083333 </v>
   <v>       0.02083333 </v>
   <v>       0.02083333 </v>
   <v>       0.02083333 </v>
   <v>       0.02083333 </v>
   <v>       0.02083333 </v>
   <v>       0.02083333 </v>
   <v>       0.02083333 </v>
   <v>       0.02083333 </v>
   <v>       0.01041667 </v>
   <v>       0.02083333 </v>
   <v>       0.01041667 </v>
   <v>       0.02083333 </v>
   <v>       0.02083333 </v>
   <v>       0.02083333 </v>
   <v>       0.02083333 </v>
   <v>       0.01041667 </v>
   <v>       0.02083333 </v>
   <v>       0.01041667 </v>
  </varray>
 </kpoints>
 <parameters>
  <separator name="general" >
   <i type="string" name="SYSTEM">unknown system</i>
   <i type="logical" name="LCOMPAT"> F  </i>
  </separator>
  <separator name="electronic" >
   <i type="string" name="PREC">accura</i>
   <i name="ENMAX">    650.00000000</i>
   <i name="ENAUG">    446.84200000</i>
   <i name="EDIFF">      0.00000001</i>
   <i type="int" name="IALGO">    38</i>
   <i type="int" name="IWAVPR">    10</i>
   <i type="int" name="NBANDS">    80</i>
   <i name="NELECT">    112.00000000</i>
   <i type="int" name="TURBO">     0</i>
   <i type="int" name="IRESTART">     0</i>
   <i type="int" name="NREBOOT">     0</i>
   <i type="int" name="NMIN">     0</i>
   <i name="EREF">      0.00000000</i>
   <separator name="electronic smearing" >
    <i type="int" name="ISMEAR">     0</i>
    <i name="SIGMA">      0.05000000</i>
    <i name="KSPACING">      0.50000000</i>
    <i type="logical" name="KGAMMA"> T  </i>
   </separator>
   <separator name="electronic projectors" >
    <i type="logical" name="LREAL"> F  </i>
    <v name="ROPT">      0.00000000      0.00000000</v>
    <i type="int" name="LMAXPAW">  -100</i>
    <i type="int" name="LMAXMIX">     2</i>
    <i type="logical" name="NLSPLINE"> F  </i>
   </separator>
   <separator name="electronic startup" >
    <i type="int" name="ISTART">     0</i>
    <i type="int" name="ICHARG">     2</i>
    <i type="int" name="INIWAV">     1</i>
   </separator>
   <separator name="electronic spin" >
    <i type="int" name="ISPIN">     1</i>
    <i type="logical" name="LNONCOLLINEAR"> F  </i>
    <v name="MAGMOM">      1.00000000      1.00000000      1.00000000      1.00000000      1.00000000      1.00000000      1.00000000      1.00000000      1.00000000      1.00000000      1.00000000      1.00000000</v>
    <i name="NUPDOWN">     -1.00000000</i>
    <i type="logical" name="LSORBIT"> F  </i>
    <v name="SAXIS">      0.00000000      0.00000000      1.00000000</v>
    <i type="logical" name="LSPIRAL"> F  </i>
    <v name="QSPIRAL">      0.00000000      0.00000000      0.00000000</v>
    <i type="logical" name="LZEROZ"> F  </i>
   </separator>
   <separator name="electronic exchange-correlation" >
    <i type="logical" name="LASPH"> T  </i>
    <i type="logical" name="LMETAGGA"> F  </i>
   </separator>
   <separator name="electronic convergence" >
    <i type="int" name="NELM">   200</i>
    <i type="int" name="NELMDL">    -5</i>
    <i type="int" name="NELMIN">     8</i>
    <i name="ENINI">    650.00000000</i>
    <separator name="electronic convergence detail" >
     <i type="logical" name="LDIAG"> T  </i>
     <i type="logical" name="LSUBROT"> F  </i>
     <i name="WEIMIN">      0.00000000</i>
     <i name="EBREAK">      0.00000000</i>
     <i name="DEPER">      0.30000000</i>
     <i type="int" name="NRMM">     4</i>
     <i name="TIME">      0.40000000</i>
    </separator>
   </separator>
   <separator name="electronic mixer" >
    <i name="AMIX">      0.40000000</i>
    <i name="BMIX">      1.00000000</i>
    <i name="AMIN">      0.10000000</i>
    <i name="AMIX_MAG">      1.60000000</i>
    <i name="BMIX_MAG">      1.00000000</i>
    <separator name="electronic mixer details" >
     <i type="int" name="IMIX">     4</i>
     <i type="logical" name="MIXFIRST"> F  </i>
     <i type="int" name="MAXMIX">   -45</i>
     <i name="WC">    100.00000000</i>
     <i type="int" name="INIMIX">     1</i>
     <i type="int" name="MIXPRE">     1</i>
     <i type="int" name="MREMOVE">     5</i>
    </separator>
   </separator>
   <separator name="electronic dipolcorrection" >
    <i type="logical" name="LDIPOL"> F  </i>
    <i type="logical" name="LMONO"> F  </i>
    <i type="int" name="IDIPOL">     0</i>
    <i name="EPSILON">      1.00000000</i>
    <v name="DIPOL">   -100.00000000   -100.00000000   -100.00000000</v>
    <i name="EFIELD">      0.00000000</i>
   </separator>
  </separator>
  <separator name="grids" >
   <i type="int" name="NGX">    60</i>
   <i type="int" name="NGY">    60</i>
   <i type="int" name="NGZ">    40</i>
   <i type="int" name="NGXF">   120</i>
   <i type="int" name="NGYF">   120</i>
   <i type="int" name="NGZF">    80</i>
   <i type="logical" name="ADDGRID"> T  </i>
  </separator>
  <separator name="ionic" >
   <i type="int" name="NSW">     0</i>
   <i type="int" name="IBRION">    -1</i>
   <i type="int" name="MDALGO">     0</i>
   <i type="int" name="ISIF">     3</i>
   <i name="PSTRESS">      0.00000000</i>
   <i name="EDIFFG">      0.00000010</i>
   <i type="int" name="NFREE">     0</i>
   <i name="POTIM">      0.50000000</i>
   <i name="SMASS">     -3.00000000</i>
   <i name="SCALEE">      1.00000000</i>
  </separator>
  <separator name="ionic md" >
   <i name="TEBEG">      0.00010000</i>
   <i name="TEEND">      0.00010000</i>
   <i type="int" name="NBLOCK">     1</i>
   <i type="int" name="KBLOCK">     1</i>
   <i type="int" name="NPACO">   256</i>
   <i name="APACO">     16.00000000</i>
  </separator>
  <separator name="symmetry" >
   <i type="int" name="ISYM">     0</i>
   <i name="SYMPREC">      0.00001000</i>
  </separator>
  <separator name="dos" >
   <i type="int" name="LORBIT">     0</i>
   <v name="RWIGS">     -1.00000000     -1.00000000</v>
   <i type="int" name="NEDOS">   301</i>
   <i name="EMIN">     10.00000000</i>
   <i name="EMAX">    -10.00000000</i>
   <i name="EFERMI">      0.00000000</i>
  </separator>
  <separator name="writing" >
   <i type="int" name="NWRITE">     2</i>
   <i type="logical" name="LWAVE"> F  </i>
   <i type="logical" name="LDOWNSAMPLE"> F  </i>
   <i type="logical" name="LCHARG"> T  </i>
   <i type="logical" name="LPARD"> F  </i>
   <i type="logical" name="LVTOT"> F  </i>
   <i type="logical" name="LVHAR"> F  </i>
   <i type="logical" name="LELF"> F  </i>
   <i type="logical" name="LOPTICS"> F  </i>
   <v name="STM">      0.00000000      0.00000000      0.00000000      0.00000000      0.00000000      0.00000000      0.00000000</v>
  </separator>
  <separator name="performance" >
   <i type="int" name="NPAR">    20</i>
   <i type="int" name="NSIM">     4</i>
   <i type="int" name="NBLK">    -1</i>
   <i type="logical" name="LPLANE"> T  </i>
   <i type="logical" name="LSCALAPACK"> T  </i>
   <i type="logical" name="LSCAAWARE"> F  </i>
   <i type="logical" name="LSCALU"> F  </i>
   <i type="logical" name="LASYNC"> F  </i>
   <i type="logical" name="LORBITALREAL"> F  </i>
  </separator>
  <separator name="miscellaneous" >
   <i type="int" name="IDIOT">     3</i>
   <i type="int" name="ISPECIAL">     0</i>
   <i type="logical" name="LMUSIC"> F  </i>
   <v name="POMASS">    107.86800000     78.96000000</v>
   <v name="DARWINR">      0.00000000      0.00000000</v>
   <v name="DARWINV">      1.00000000      1.00000000</v>
   <i type="logical" name="LCORR"> T  </i>
  </separator>
  <i type="logical" name="GGA_COMPAT"> T  </i>
  <i type="logical" name="LBERRY"> F  </i>
  <i type="int" name="ICORELEVEL">     0</i>
  <i type="logical" name="LDAU"> F  </i>
  <i type="int" name="I_CONSTRAINED_M">     0</i>
  <separator name="electronic exchange-correlation" >
   <i type="string" name="GGA">PS</i>
   <i type="int" name="VOSKOWN">     0</i>
   <i type="logical" name="LHFCALC"> F  </i>
   <i type="string" name="PRECFOCK"></i>
   <i type="logical" name="LSYMGRAD"> F  </i>
   <i type="logical" name="LHFONE"> F  </i>
   <i type="logical" name="LRHFCALC"> F  </i>
   <i type="logical" name="LTHOMAS"> F  </i>
   <i type="logical" name="LMODELHF"> F  </i>
   <i name="ENCUT4O">     -1.00000000</i>
   <i type="int" name="EXXOEP">     0</i>
   <i type="int" name="FOURORBIT">     0</i>
   <i name="AEXX">      0.00000000</i>
   <i name="HFALPHA">      0.00000000</i>
   <i name="MCALPHA">      0.00000000</i>
   <i name="ALDAX">      1.00000000</i>
   <i name="AGGAX">      1.00000000</i>
   <i name="ALDAC">      1.00000000</i>
   <i name="AGGAC">      1.00000000</i>
   <i type="int" name="NKREDX">     1</i>
   <i type="int" name="NKREDY">     1</i>
   <i type="int" name="NKREDZ">     1</i>
   <i type="logical" name="SHIFTRED"> F  </i>
   <i type="logical" name="ODDONLY"> F  </i>
   <i type="logical" name="EVENONLY"> F  </i>
   <i type="int" name="LMAXFOCK">     0</i>
   <i type="int" name="NMAXFOCKAE">     0</i>
   <i type="logical" name="LFOCKAEDFT"> F  </i>
   <i name="HFSCREEN">      0.00000000</i>
   <i name="HFSCREENC">      0.00000000</i>
   <i type="int" name="NBANDSGWLOW">     0</i>
  </separator>
  <separator name="vdW DFT" >
   <i type="logical" name="LUSE_VDW"> F  </i>
   <i name="Zab_VDW">     -0.84910000</i>
   <i name="PARAM1">      0.12340000</i>
   <i name="PARAM2">      1.00000000</i>
   <i name="PARAM3">      0.00000000</i>
  </separator>
  <separator name="model GW" >
   <i type="int" name="MODEL_GW">     0</i>
   <i name="MODEL_EPS0">     11.69349825</i>
   <i name="MODEL_ALPHA">      1.00000000</i>
  </separator>
  <separator name="linear response parameters" >
   <i type="logical" name="LEPSILON"> T  </i>
   <i type="logical" name="LRPA"> F  </i>
   <i type="logical" name="LNABLA"> F  </i>
   <i type="logical" name="LVEL"> F  </i>
   <i type="int" name="KINTER">     0</i>
   <i name="CSHIFT">      0.10000000</i>
   <i name="OMEGAMAX">     -1.00000000</i>
   <i name="DEG_THRESHOLD">      0.00200000</i>
   <i name="RTIME">     -0.10000000</i>
   <i name="WPLASMAI">      0.00000000</i>
   <v name="DFIELD">      0.00000000      0.00000000      0.00000000</v>
   <v name="WPLASMA">      0.00000000      0.00000000      0.00000000      0.00000000      0.00000000      0.00000000      0.00000000      0.00000000      0.00000000</v>
  </separator>
  <separator name="orbital magnetization" >
   <i type="logical" name="NUCIND"> F  </i>
   <v name="MAGPOS">      0.00000000      0.00000000      0.00000000</v>
   <i type="logical" name="LNICSALL"> T  </i>
   <i type="logical" name="ORBITALMAG"> F  </i>
   <i type="logical" name="LMAGBLOCH"> F  </i>
   <i type="logical" name="LCHIMAG"> F  </i>
   <i type="logical" name="LGAUGE"> T  </i>
   <i type="int" name="MAGATOM">     0</i>
   <v name="MAGDIPOL">      0.00000000      0.00000000      0.00000000</v>
   <v name="AVECCONST">      0.00000000      0.00000000      0.00000000</v>
  </separator>
  <separator name="response functions" >
   <i type="logical" name="LADDER"> F  </i>
   <i type="logical" name="LRPAFORCE"> F  </i>
   <i type="logical" name="LFXC"> F  </i>
   <i type="logical" name="LHARTREE"> T  </i>
   <i type="int" name="IBSE">     0</i>
   <v type="int" name="KPOINT">    -1     0     0     0</v>
   <i type="logical" name="LTCTE"> F  </i>
   <i type="logical" name="LTETE"> F  </i>
   <i type="logical" name="LTRIPLET"> F  </i>
   <i type="logical" name="LFXCEPS"> F  </i>
   <i type="logical" name="LFXHEG"> F  </i>
   <i type="int" name="NATURALO">     2</i>
   <i type="logical" name="L2ORDER"> F  </i>
   <i type="logical" name="LMP2LT"> F  </i>
   <i type="logical" name="LUSEW"> F  </i>
   <i name="ENCUTGW">     -2.00000000</i>
   <i name="ENCUTGWSOFT">     -2.00000000</i>
   <i name="ENCUTLF">     -1.00000000</i>
   <i type="int" name="LMAXMP2">    -1</i>
   <i name="SCISSOR">      0.00000000</i>
   <i type="int" name="NOMEGA">     0</i>
   <i type="int" name="NOMEGAR">     0</i>
   <i type="int" name="NBANDSGW">    -1</i>
   <i type="int" name="NBANDSO">    -1</i>
   <i type="int" name="NBANDSV">    -1</i>
   <i type="int" name="NELM">   200</i>
   <i type="int" name="NELMHF">     1</i>
   <i type="int" name="DIM">     3</i>
   <i type="int" name="ANTIRES">     0</i>
   <i name="OMEGAMAX">    -30.00000000</i>
   <i name="OMEGAMIN">    -30.00000000</i>
   <i name="OMEGATL">   -200.00000000</i>
   <i type="int" name="OMEGAGRID">   140</i>
   <i name="CSHIFT">     -0.10000000</i>
   <i type="logical" name="SELFENERGY"> F  </i>
   <i type="logical" name="LSPECTRAL"> F  </i>
   <i type="logical" name="LSPECTRALGW"> F  </i>
   <i type="logical" name="LSINGLES"> F  </i>
   <i type="logical" name="LFERMIGW"> F  </i>
   <i type="logical" name="ODDONLYGW"> F  </i>
   <i type="logical" name="EVENONLYGW"> F  </i>
   <i type="int" name="NKREDLFX">     1</i>
   <i type="int" name="NKREDLFY">     1</i>
   <i type="int" name="NKREDLFZ">     1</i>
   <i type="int" name="MAXMEM">  2800</i>
   <i type="int" name="TELESCOPE">     0</i>
   <i type="int" name="TAUPAR">     1</i>
   <i type="int" name="OMEGAPAR">    -1</i>
   <i name="LAMBDA">      1.00000000</i>
  </separator>
  <separator name="External order field" >
   <i name="OFIELD_KAPPA">      0.00000000</i>
   <v name="OFIELD_K">      0.00000000      0.00000000      0.00000000</v>
   <i name="OFIELD_Q6_NEAR">      0.00000000</i>
   <i name="OFIELD_Q6_FAR">      0.00000000</i>
   <i name="OFIELD_A">      0.00000000</i>
  </separator>
 </parameters>
 <atominfo>
  <atoms>      12 </atoms>
  <types>       2 </types>
  <array name="atoms" >
   <dimension dim="1">ion</dimension>
   <field type="string">element</field>
   <field type="int">atomtype</field>
   <set>
    <rc><c>Ag</c><c>   1</c></rc>
    <rc><c>Ag</c><c>   1</c></rc>
    <rc><c>Ag</c><c>   1</c></rc>
    <rc><c>Ag</c><c>   1</c></rc>
    <rc><c>Ag</c><c>   1</c></rc>
    <rc><c>Ag</c><c>   1</c></rc>
    <rc><c>Ag</c><c>   1</c></rc>
    <rc><c>Ag</c><c>   1</c></rc>
    <rc><c>Se</c><c>   2</c></rc>
    <rc><c>Se</c><c>   2</c></rc>
    <rc><c>Se</c><c>   2</c></rc>
    <rc><c>Se</c><c>   2</c></rc>
   </set>
  </array>
  <array name="atomtypes" >
   <dimension dim="1">type</dimension>
   <field type="int">atomspertype</field>
   <field type="string">element</field>
   <field>mass</field>
   <field>valence</field>
   <field type="string">pseudopotential</field>
   <set>
    <rc><c>   8</c><c>Ag</c><c>    107.86800000</c><c>     11.00000000</c><c>  PAW_PBE Ag 02Apr2005                  </c></rc>
    <rc><c>   4</c><c>Se</c><c>     78.96000000</c><c>      6.00000000</c><c>  PAW_PBE Se 06Sep2000                  </c></rc>
   </set>
  </array>
 </atominfo>
 <structure name="initialpos" >
  <crystal>
   <varray name="basis" >
    <v>       7.00519799       0.00069569       0.00000000 </v>
    <v>      -0.00075098       6.88345546       0.00000000 </v>
    <v>       0.00000000       0.00000000       4.85006462 </v>
   </varray>
   <i name="volume">    233.86996502 </i>
   <varray name="rec_basis" >
    <v>       0.14275114       0.00001557       0.00000000 </v>
    <v>      -0.00001443       0.14527587       0.00000000 </v>
    <v>       0.00000000       0.00000000       0.20618282 </v>
   </varray>
  </crystal>
  <varray name="positions" >
   <v>       0.85975796       0.34334154       0.99743204 </v>
   <v>       0.14024204       0.65665846       0.99743204 </v>
   <v>       0.64024105       0.84334734       0.16923224 </v>
   <v>       0.35975895       0.15665266       0.16923224 </v>
   <v>       0.35975552       0.65664738       0.49742567 </v>
   <v>       0.64024448       0.34335262       0.49742567 </v>
   <v>       0.85975312       0.84334989       0.66923999 </v>
   <v>       0.14024688       0.15665011       0.66923999 </v>
   <v>       0.00000000       0.00000000       0.16438095 </v>
   <v>       0.50000000       0.00000000       0.66435618 </v>
   <v>       0.00000000       0.50000000       0.50231306 </v>
   <v>       0.50000000       0.50000000       0.00228996 </v>
  </varray>
 </structure>
 <calculation>
  <scstep>
   <time name="dav">    5.88    5.99</time>
   <time name="total">    6.08    6.20</time>
   <energy>
    <i name="alphaZ">    407.58152855 </i>
    <i name="ewald">  -8236.92972663 </i>
    <i name="hartreedc">  -2149.09166720 </i>
    <i name="XCdc">    -74.15520054 </i>
    <i name="pawpsdc">   8857.22817157 </i>
    <i name="pawaedc">  -8441.54974434 </i>
    <i name="eentropy">     -0.00687704 </i>
    <i name="bandstr">   1090.07822562 </i>
    <i name="atom">   9323.49817503 </i>
    <i name="e_fr_energy">    776.65288502 </i>
    <i name="e_wo_entrp">    776.65976206 </i>
    <i name="e_0_energy">    776.65632354 </i>
   </energy>
  </scstep>
  <scstep>
   <time name="dav">    6.02    6.04</time>
   <time name="total">    6.02    6.04</time>
   <energy>
    <i name="e_fr_energy">    -14.76630780 </i>
    <i name="e_wo_entrp">    -14.76514122 </i>
    <i name="e_0_energy">    -14.76572451 </i>
   </energy>
  </scstep>
  <scstep>
   <time name="dav">    6.46    6.48</time>
   <time name="total">    6.46    6.48</time>
   <energy>
    <i name="e_fr_energy">    -44.43030893 </i>
    <i name="e_wo_entrp">    -44.42985651 </i>
    <i name="e_0_energy">    -44.43008272 </i>
   </energy>
  </scstep>
  <scstep>
   <time name="dav">    5.57    5.59</time>
   <time name="total">    5.57    5.59</time>
   <energy>
    <i name="e_fr_energy">    -44.63653448 </i>
    <i name="e_wo_entrp">    -44.63607944 </i>
    <i name="e_0_energy">    -44.63630696 </i>
   </energy>
  </scstep>
  <scstep>
   <time name="dav">    6.51    6.52</time>
   <time name="total">    6.79    6.81</time>
   <energy>
    <i name="e_fr_energy">    -44.63816181 </i>
    <i name="e_wo_entrp">    -44.63770671 </i>
    <i name="e_0_energy">    -44.63793426 </i>
   </energy>
  </scstep>
  <scstep>
   <time name="dav">    6.08    6.10</time>
   <time name="total">    6.53    6.56</time>
   <energy>
    <i name="e_fr_energy">    -42.13164740 </i>
    <i name="e_wo_entrp">    -42.13035441 </i>
    <i name="e_0_energy">    -42.13100091 </i>
   </energy>
  </scstep>
  <scstep>
   <time name="dav">    6.05    6.07</time>
   <time name="total">    6.55    6.57</time>
   <energy>
    <i name="e_fr_energy">    -42.12987528 </i>
    <i name="e_wo_entrp">    -42.12859454 </i>
    <i name="e_0_energy">    -42.12923491 </i>
   </energy>
  </scstep>
  <scstep>
   <time name="dav">    6.32    6.34</time>
   <time name="total">    6.79    6.81</time>
   <energy>
    <i name="e_fr_energy">    -42.09473369 </i>
    <i name="e_wo_entrp">    -42.09349807 </i>
    <i name="e_0_energy">    -42.09411588 </i>
   </energy>
  </scstep>
  <scstep>
   <time name="dav">    6.23    6.25</time>
   <time name="total">    6.69    6.71</time>
   <energy>
    <i name="e_fr_energy">    -42.09216733 </i>
    <i name="e_wo_entrp">    -42.09089830 </i>
    <i name="e_0_energy">    -42.09153281 </i>
   </energy>
  </scstep>
  <scstep>
   <time name="dav">    6.01    6.03</time>
   <time name="total">    6.47    6.49</time>
   <energy>
    <i name="e_fr_energy">    -42.09225044 </i>
    <i name="e_wo_entrp">    -42.09097885 </i>
    <i name="e_0_energy">    -42.09161464 </i>
   </energy>
  </scstep>
  <scstep>
   <time name="dav">    6.03    6.04</time>
   <time name="total">    6.49    6.51</time>
   <energy>
    <i name="e_fr_energy">    -42.09223758 </i>
    <i name="e_wo_entrp">    -42.09096895 </i>
    <i name="e_0_energy">    -42.09160326 </i>
   </energy>
  </scstep>
  <scstep>
   <time name="dav">    6.22    6.24</time>
   <time name="total">    6.68    6.70</time>
   <energy>
    <i name="e_fr_energy">    -42.09223815 </i>
    <i name="e_wo_entrp">    -42.09096905 </i>
    <i name="e_0_energy">    -42.09160360 </i>
   </energy>
  </scstep>
  <scstep>
   <time name="dav">    6.27    6.28</time>
   <time name="total">    6.76    6.78</time>
   <energy>
    <i name="e_fr_energy">    -42.09223777 </i>
    <i name="e_wo_entrp">    -42.09096884 </i>
    <i name="e_0_energy">    -42.09160330 </i>
   </energy>
  </scstep>
  <scstep>
   <time name="dav">    6.27    6.30</time>
   <time name="total">    6.75    6.77</time>
   <energy>
    <i name="e_fr_energy">    -42.09223771 </i>
    <i name="e_wo_entrp">    -42.09096879 </i>
    <i name="e_0_energy">    -42.09160325 </i>
   </energy>
  </scstep>
  <scstep>
   <time name="dav">    4.32    4.33</time>
   <time name="total">    4.49    4.51</time>
   <energy>
    <i name="alphaZ">    407.58152855 </i>
    <i name="ewald">  -8236.92972663 </i>
    <i name="hartreedc">  -2054.82772345 </i>
    <i name="XCdc">    -76.87073527 </i>
    <i name="pawpsdc">  10187.70781783 </i>
    <i name="pawaedc">  -9787.06265468 </i>
    <i name="eentropy">     -0.00126891 </i>
    <i name="bandstr">    194.81234983 </i>
    <i name="atom">   9323.49817503 </i>
    <i name="e_fr_energy">    -42.09223770 </i>
    <i name="e_wo_entrp">    -42.09096880 </i>
    <i name="e_0_energy">    -42.09160325 </i>
   </energy>
  </scstep>
  <structure>
   <crystal>
    <varray name="basis" >
     <v>       7.00519799       0.00069569       0.00000000 </v>
     <v>      -0.00075098       6.88345546       0.00000000 </v>
     <v>       0.00000000       0.00000000       4.85006462 </v>
    </varray>
    <i name="volume">    233.86996502 </i>
    <varray name="rec_basis" >
     <v>       0.14275114       0.00001557       0.00000000 </v>
     <v>      -0.00001443       0.14527587       0.00000000 </v>
     <v>       0.00000000       0.00000000       0.20618282 </v>
    </varray>
   </crystal>
   <varray name="positions" >
    <v>       0.85975796       0.34334154       0.99743204 </v>
    <v>       0.14024204       0.65665846       0.99743204 </v>
    <v>       0.64024105       0.84334734       0.16923224 </v>
    <v>       0.35975895       0.15665266       0.16923224 </v>
    <v>       0.35975552       0.65664738       0.49742567 </v>
    <v>       0.64024448       0.34335262       0.49742567 </v>
    <v>       0.85975312       0.84334989       0.66923999 </v>
    <v>       0.14024688       0.15665011       0.66923999 </v>
    <v>       0.00000000       0.00000000       0.16438095 </v>
    <v>       0.50000000       0.00000000       0.66435618 </v>
    <v>       0.00000000       0.50000000       0.50231306 </v>
    <v>       0.50000000       0.50000000       0.00228996 </v>
   </varray>
  </structure>
  <varray name="forces" >
   <v>      -0.00000846       0.00006788      -0.00002152 </v>
   <v>       0.00000837      -0.00006771      -0.00002151 </v>
   <v>       0.00000877       0.00002197       0.00004144 </v>
   <v>      -0.00000884      -0.00002210       0.00004148 </v>
   <v>       0.00000637      -0.00000107       0.00000105 </v>
   <v>      -0.00000633       0.00000112       0.00000105 </v>
   <v>       0.00002383       0.00001162       0.00000751 </v>
   <v>      -0.00002382      -0.00001171       0.00000750 </v>
   <v>      -0.00000005      -0.00000026      -0.00009380 </v>
   <v>       0.00000012      -0.00000004       0.00000892 </v>
   <v>       0.00000008       0.00000007      -0.00003067 </v>
   <v>      -0.00000005       0.00000023       0.00005855 </v>
  </varray>
  <varray name="stress" >
   <v>      -0.00170654       0.00021663       0.00000061 </v>
   <v>       0.00021635      -0.00272305       0.00000386 </v>
   <v>       0.00000064       0.00000362      -0.00291732 </v>
  </varray>
  <energy>
   <i name="e_fr_energy">    -42.09223770 </i>
   <i name="e_wo_entrp">    -42.09160325 </i>
   <i name="e_0_energy">     -0.00126891 </i>
  </energy>
  <scstep>
   <time name="total">   10.24   10.27</time>
   <energy>
    <i name="e_fr_energy">   -517.59282518 </i>
    <i name="e_wo_entrp">   -517.59282518 </i>
    <i name="e_0_energy">   -517.59282518 </i>
   </energy>
  </scstep>
  <scstep>
   <time name="total">    7.49    7.51</time>
   <energy>
    <i name="e_fr_energy">   -467.89736513 </i>
    <i name="e_wo_entrp">   -467.89736513 </i>
    <i name="e_0_energy">   -467.89736513 </i>
   </energy>
  </scstep>
  <scstep>
   <time name="total">    7.48    7.49</time>
   <energy>
    <i name="e_fr_energy">   -467.96575567 </i>
    <i name="e_wo_entrp">   -467.96575567 </i>
    <i name="e_0_energy">   -467.96575567 </i>
   </energy>
  </scstep>
  <scstep>
   <time name="total">    5.65    5.67</time>
   <energy>
    <i name="e_fr_energy">   -467.96602913 </i>
    <i name="e_wo_entrp">   -467.96602913 </i>
    <i name="e_0_energy">   -467.96602913 </i>
   </energy>
  </scstep>
  <scstep>
   <time name="total">    5.87    5.89</time>
   <energy>
    <i name="e_fr_energy">   -467.96602448 </i>
    <i name="e_wo_entrp">   -467.96602448 </i>
    <i name="e_0_energy">   -467.96602448 </i>
   </energy>
  </scstep>
  <scstep>
   <time name="total">    6.95    6.97</time>
   <energy>
    <i name="e_fr_energy">   -467.96599524 </i>
    <i name="e_wo_entrp">   -467.96599524 </i>
    <i name="e_0_energy">   -467.96599524 </i>
   </energy>
  </scstep>
  <scstep>
   <time name="total">    7.40    7.42</time>
   <energy>
    <i name="e_fr_energy">   -467.96620542 </i>
    <i name="e_wo_entrp">   -467.96620542 </i>
    <i name="e_0_energy">   -467.96620542 </i>
   </energy>
  </scstep>
  <scstep>
   <time name="total">    7.16    7.18</time>
   <energy>
    <i name="e_fr_energy">   -467.96604798 </i>
    <i name="e_wo_entrp">   -467.96604798 </i>
    <i name="e_0_energy">   -467.96604798 </i>
   </energy>
  </scstep>
  <scstep>
   <time name="total">    7.02    7.03</time>
   <energy>
    <i name="e_fr_energy">   -467.96619263 </i>
    <i name="e_wo_entrp">   -467.96619263 </i>
    <i name="e_0_energy">   -467.96619263 </i>
   </energy>
  </scstep>
  <scstep>
   <time name="total">    9.84    9.86</time>
   <energy>
    <i name="e_fr_energy">   -509.15220155 </i>
    <i name="e_wo_entrp">   -509.15220155 </i>
    <i name="e_0_energy">   -509.15220155 </i>
   </energy>
  </scstep>
  <scstep>
   <time name="total">    7.35    7.37</time>
   <energy>
    <i name="e_fr_energy">   -465.52142517 </i>
    <i name="e_wo_entrp">   -465.52142517 </i>
    <i name="e_0_energy">   -465.52142517 </i>
   </energy>
  </scstep>
  <scstep>
   <time name="total">    7.57    7.59</time>
   <energy>
    <i name="e_fr_energy">   -465.61530117 </i>
    <i name="e_wo_entrp">   -465.61530117 </i>
    <i name="e_0_energy">   -465.61530117 </i>
   </energy>
  </scstep>
  <scstep>
   <time name="total">    5.80    5.81</time>
   <energy>
    <i name="e_fr_energy">   -465.61623850 </i>
    <i name="e_wo_entrp">   -465.61623850 </i>
    <i name="e_0_energy">   -465.61623850 </i>
   </energy>
  </scstep>
  <scstep>
   <time name="total">    5.96    5.98</time>
   <energy>
    <i name="e_fr_energy">   -465.61624047 </i>
    <i name="e_wo_entrp">   -465.61624047 </i>
    <i name="e_0_energy">   -465.61624047 </i>
   </energy>
  </scstep>
  <scstep>
   <time name="total">    6.79    6.81</time>
   <energy>
    <i name="e_fr_energy">   -465.61622594 </i>
    <i name="e_wo_entrp">   -465.61622594 </i>
    <i name="e_0_energy">   -465.61622594 </i>
   </energy>
  </scstep>
  <scstep>
   <time name="total">    7.29    7.31</time>
   <energy>
    <i name="e_fr_energy">   -465.61622990 </i>
    <i name="e_wo_entrp">   -465.61622990 </i>
    <i name="e_0_energy">   -465.61622990 </i>
   </energy>
  </scstep>
  <scstep>
   <time name="total">    7.12    7.14</time>
   <energy>
    <i name="e_fr_energy">   -465.61622820 </i>
    <i name="e_wo_entrp">   -465.61622820 </i>
    <i name="e_0_energy">   -465.61622820 </i>
   </energy>
  </scstep>
  <scstep>
   <time name="total">    6.95    6.97</time>
   <energy>
    <i name="e_fr_energy">   -465.61623447 </i>
    <i name="e_wo_entrp">   -465.61623447 </i>
    <i name="e_0_energy">   -465.61623447 </i>
   </energy>
  </scstep>
  <scstep>
   <time name="total">   10.08   10.11</time>
   <energy>
    <i name="e_fr_energy">   -520.18912028 </i>
    <i name="e_wo_entrp">   -520.18912028 </i>
    <i name="e_0_energy">   -520.18912028 </i>
   </energy>
  </scstep>
  <scstep>
   <time name="total">    7.32    7.33</time>
   <energy>
    <i name="e_fr_energy">   -465.53350738 </i>
    <i name="e_wo_entrp">   -465.53350738 </i>
    <i name="e_0_energy">   -465.53350738 </i>
   </energy>
  </scstep>
  <scstep>
   <time name="total">    7.51    7.53</time>
   <energy>
    <i name="e_fr_energy">   -465.63907352 </i>
    <i name="e_wo_entrp">   -465.63907352 </i>
    <i name="e_0_energy">   -465.63907352 </i>
   </energy>
  </scstep>
  <scstep>
   <time name="total">    5.70    5.72</time>
   <energy>
    <i name="e_fr_energy">   -465.64074422 </i>
    <i name="e_wo_entrp">   -465.64074422 </i>
    <i name="e_0_energy">   -465.64074422 </i>
   </energy>
  </scstep>
  <scstep>
   <time name="total">    6.03    6.04</time>
   <energy>
    <i name="e_fr_energy">   -465.64090733 </i>
    <i name="e_wo_entrp">   -465.64090733 </i>
    <i name="e_0_energy">   -465.64090733 </i>
   </energy>
  </scstep>
  <scstep>
   <time name="total">    7.08    7.10</time>
   <energy>
    <i name="e_fr_energy">   -465.64084154 </i>
    <i name="e_wo_entrp">   -465.64084154 </i>
    <i name="e_0_energy">   -465.64084154 </i>
   </energy>
  </scstep>
  <scstep>
   <time name="total">    7.39    7.40</time>
   <energy>
    <i name="e_fr_energy">   -465.64091128 </i>
    <i name="e_wo_entrp">   -465.64091128 </i>
    <i name="e_0_energy">   -465.64091128 </i>
   </energy>
  </scstep>
  <scstep>
   <time name="total">    7.09    7.11</time>
   <energy>
    <i name="e_fr_energy">   -465.64066837 </i>
    <i name="e_wo_entrp">   -465.64066837 </i>
    <i name="e_0_energy">   -465.64066837 </i>
   </energy>
  </scstep>
  <scstep>
   <time name="total">    7.04    7.05</time>
   <energy>
    <i name="e_fr_energy">   -465.64080904 </i>
    <i name="e_wo_entrp">   -465.64080904 </i>
    <i name="e_0_energy">   -465.64080904 </i>
   </energy>
  </scstep>
  <scstep>
   <time name="total">    9.01    9.03</time>
   <energy>
    <i name="e_fr_energy">    -20.33852122 </i>
    <i name="e_wo_entrp">    -20.33852122 </i>
    <i name="e_0_energy">    -20.33852122 </i>
   </energy>
  </scstep>
  <scstep>
   <time name="total">    7.74    7.75</time>
   <energy>
    <i name="e_fr_energy">    -38.07306879 </i>
    <i name="e_wo_entrp">    -38.07306879 </i>
    <i name="e_0_energy">    -38.07306879 </i>
   </energy>
  </scstep>
  <scstep>
   <time name="total">    7.53    7.54</time>
   <energy>
    <i name="e_fr_energy">    -38.08661481 </i>
    <i name="e_wo_entrp">    -38.08661481 </i>
    <i name="e_0_energy">    -38.08661481 </i>
   </energy>
  </scstep>
  <scstep>
   <time name="total">    7.59    7.61</time>
   <energy>
    <i name="e_fr_energy">    -38.08667046 </i>
    <i name="e_wo_entrp">    -38.08667046 </i>
    <i name="e_0_energy">    -38.08667046 </i>
   </energy>
  </scstep>
  <scstep>
   <time name="total">    7.67    7.68</time>
   <energy>
    <i name="e_fr_energy">    -38.08667147 </i>
    <i name="e_wo_entrp">    -38.08667147 </i>
    <i name="e_0_energy">    -38.08667147 </i>
   </energy>
  </scstep>
  <scstep>
   <time name="total">    7.75    7.77</time>
   <energy>
    <i name="e_fr_energy">    -38.08667132 </i>
    <i name="e_wo_entrp">    -38.08667132 </i>
    <i name="e_0_energy">    -38.08667132 </i>
   </energy>
  </scstep>
  <scstep>
   <time name="total">    7.39    7.41</time>
   <energy>
    <i name="e_fr_energy">    -38.08667133 </i>
    <i name="e_wo_entrp">    -38.08667133 </i>
    <i name="e_0_energy">    -38.08667133 </i>
   </energy>
  </scstep>
  <scstep>
   <time name="total">    7.44    7.45</time>
   <energy>
    <i name="e_fr_energy">    -38.08667133 </i>
    <i name="e_wo_entrp">    -38.08667133 </i>
    <i name="e_0_energy">    -38.08667133 </i>
   </energy>
  </scstep>
  <scstep>
   <time name="total">    9.00    9.02</time>
   <energy>
    <i name="e_fr_energy">    -10.99777329 </i>
    <i name="e_wo_entrp">    -10.99777329 </i>
    <i name="e_0_energy">    -10.99777329 </i>
   </energy>
  </scstep>
  <scstep>
   <time name="total">    7.53    7.55</time>
   <energy>
    <i name="e_fr_energy">    -13.68705666 </i>
    <i name="e_wo_entrp">    -13.68705666 </i>
    <i name="e_0_energy">    -13.68705666 </i>
   </energy>
  </scstep>
  <scstep>
   <time name="total">    7.54    7.55</time>
   <energy>
    <i name="e_fr_energy">    -13.69161410 </i>
    <i name="e_wo_entrp">    -13.69161410 </i>
    <i name="e_0_energy">    -13.69161410 </i>
   </energy>
  </scstep>
  <scstep>
   <time name="total">    7.76    7.77</time>
   <energy>
    <i name="e_fr_energy">    -13.69164887 </i>
    <i name="e_wo_entrp">    -13.69164887 </i>
    <i name="e_0_energy">    -13.69164887 </i>
   </energy>
  </scstep>
  <scstep>
   <time name="total">    7.80    7.82</time>
   <energy>
    <i name="e_fr_energy">    -13.69164891 </i>
    <i name="e_wo_entrp">    -13.69164891 </i>
    <i name="e_0_energy">    -13.69164891 </i>
   </energy>
  </scstep>
  <scstep>
   <time name="total">    7.59    7.60</time>
   <energy>
    <i name="e_fr_energy">    -13.69164891 </i>
    <i name="e_wo_entrp">    -13.69164891 </i>
    <i name="e_0_energy">    -13.69164891 </i>
   </energy>
  </scstep>
  <scstep>
   <time name="total">    7.00    7.01</time>
   <energy>
    <i name="e_fr_energy">    -13.69164891 </i>
    <i name="e_wo_entrp">    -13.69164891 </i>
    <i name="e_0_energy">    -13.69164891 </i>
   </energy>
  </scstep>
  <scstep>
   <time name="total">    7.18    7.20</time>
   <energy>
    <i name="e_fr_energy">    -13.69164891 </i>
    <i name="e_wo_entrp">    -13.69164891 </i>
    <i name="e_0_energy">    -13.69164891 </i>
   </energy>
  </scstep>
  <scstep>
   <time name="total">    9.07    9.09</time>
   <energy>
    <i name="e_fr_energy">    -11.52685414 </i>
    <i name="e_wo_entrp">    -11.52685414 </i>
    <i name="e_0_energy">    -11.52685414 </i>
   </energy>
  </scstep>
  <scstep>
   <time name="total">    7.70    7.72</time>
   <energy>
    <i name="e_fr_energy">    -14.63372857 </i>
    <i name="e_wo_entrp">    -14.63372857 </i>
    <i name="e_0_energy">    -14.63372857 </i>
   </energy>
  </scstep>
  <scstep>
   <time name="total">    7.55    7.57</time>
   <energy>
    <i name="e_fr_energy">    -14.63880156 </i>
    <i name="e_wo_entrp">    -14.63880156 </i>
    <i name="e_0_energy">    -14.63880156 </i>
   </energy>
  </scstep>
  <scstep>
   <time name="total">    7.60    7.62</time>
   <energy>
    <i name="e_fr_energy">    -14.63883323 </i>
    <i name="e_wo_entrp">    -14.63883323 </i>
    <i name="e_0_energy">    -14.63883323 </i>
   </energy>
  </scstep>
  <scstep>
   <time name="total">    7.67    7.69</time>
   <energy>
    <i name="e_fr_energy">    -14.63883329 </i>
    <i name="e_wo_entrp">    -14.63883329 </i>
    <i name="e_0_energy">    -14.63883329 </i>
   </energy>
  </scstep>
  <scstep>
   <time name="total">    7.48    7.50</time>
   <energy>
    <i name="e_fr_energy">    -14.63883330 </i>
    <i name="e_wo_entrp">    -14.63883330 </i>
    <i name="e_0_energy">    -14.63883330 </i>
   </energy>
  </scstep>
  <scstep>
   <time name="total">    7.27    7.28</time>
   <energy>
    <i name="e_fr_energy">    -14.63883330 </i>
    <i name="e_wo_entrp">    -14.63883330 </i>
    <i name="e_0_energy">    -14.63883330 </i>
   </energy>
  </scstep>
  <scstep>
   <time name="total">    7.12    7.13</time>
   <energy>
    <i name="e_fr_energy">    -14.63883330 </i>
    <i name="e_wo_entrp">    -14.63883330 </i>
    <i name="e_0_energy">    -14.63883330 </i>
   </energy>
  </scstep>
  <scstep>
   <time name="total">    7.15    7.16</time>
   <energy>
    <i name="e_fr_energy">    -14.63883330 </i>
    <i name="e_wo_entrp">    -14.63883330 </i>
    <i name="e_0_energy">    -14.63883330 </i>
   </energy>
  </scstep>
  <scstep>
   <time name="total">    7.03    7.04</time>
   <energy>
    <i name="e_fr_energy">    -14.63883330 </i>
    <i name="e_wo_entrp">    -14.63883330 </i>
    <i name="e_0_energy">    -14.63883330 </i>
   </energy>
  </scstep>
  <varray name="epsilon_rpa" >
   <v>      59.93787894       0.00694601      -0.00001012 </v>
   <v>       0.00599054      22.18737901       0.00000084 </v>
   <v>       0.00001528      -0.00000208      23.65311922 </v>
  </varray>
  <scstep>
   <time name="total">    9.00    9.02</time>
   <energy>
    <i name="e_fr_energy">    -20.33852122 </i>
    <i name="e_wo_entrp">    -20.33852122 </i>
    <i name="e_0_energy">    -20.33852122 </i>
   </energy>
  </scstep>
  <scstep>
   <time name="total">    8.31    8.36</time>
   <energy>
    <i name="e_fr_energy">    -38.07306879 </i>
    <i name="e_wo_entrp">    -38.07306879 </i>
    <i name="e_0_energy">    -38.07306879 </i>
   </energy>
  </scstep>
  <scstep>
   <time name="total">    8.11    8.15</time>
   <energy>
    <i name="e_fr_energy">    -37.75335481 </i>
    <i name="e_wo_entrp">    -37.75335481 </i>
    <i name="e_0_energy">    -37.75335481 </i>
   </energy>
  </scstep>
  <scstep>
   <time name="total">    8.15    8.17</time>
   <energy>
    <i name="e_fr_energy">    -37.77568151 </i>
    <i name="e_wo_entrp">    -37.77568151 </i>
    <i name="e_0_energy">    -37.77568151 </i>
   </energy>
  </scstep>
  <scstep>
   <time name="total">    8.19    8.20</time>
   <energy>
    <i name="e_fr_energy">    -37.81701869 </i>
    <i name="e_wo_entrp">    -37.81701869 </i>
    <i name="e_0_energy">    -37.81701869 </i>
   </energy>
  </scstep>
  <scstep>
   <time name="total">    8.16    8.18</time>
   <energy>
    <i name="e_fr_energy">    -37.84687167 </i>
    <i name="e_wo_entrp">    -37.84687167 </i>
    <i name="e_0_energy">    -37.84687167 </i>
   </energy>
  </scstep>
  <scstep>
   <time name="total">    8.44    8.46</time>
   <energy>
    <i name="e_fr_energy">    -37.84781062 </i>
    <i name="e_wo_entrp">    -37.84781062 </i>
    <i name="e_0_energy">    -37.84781062 </i>
   </energy>
  </scstep>
  <scstep>
   <time name="total">    8.21    8.23</time>
   <energy>
    <i name="e_fr_energy">    -37.84936112 </i>
    <i name="e_wo_entrp">    -37.84936112 </i>
    <i name="e_0_energy">    -37.84936112 </i>
   </energy>
  </scstep>
  <scstep>
   <time name="total">    8.67    8.69</time>
   <energy>
    <i name="e_fr_energy">    -37.84940727 </i>
    <i name="e_wo_entrp">    -37.84940727 </i>
    <i name="e_0_energy">    -37.84940727 </i>
   </energy>
  </scstep>
  <scstep>
   <time name="total">    9.04    9.06</time>
   <energy>
    <i name="e_fr_energy">    -37.84947605 </i>
    <i name="e_wo_entrp">    -37.84947605 </i>
    <i name="e_0_energy">    -37.84947605 </i>
   </energy>
  </scstep>
  <scstep>
   <time name="total">   10.06   10.09</time>
   <energy>
    <i name="e_fr_energy">    -37.84947632 </i>
    <i name="e_wo_entrp">    -37.84947632 </i>
    <i name="e_0_energy">    -37.84947632 </i>
   </energy>
  </scstep>
  <scstep>
   <time name="total">    9.83    9.85</time>
   <energy>
    <i name="e_fr_energy">    -37.84948010 </i>
    <i name="e_wo_entrp">    -37.84948010 </i>
    <i name="e_0_energy">    -37.84948010 </i>
   </energy>
  </scstep>
  <scstep>
   <time name="total">    9.35    9.38</time>
   <energy>
    <i name="e_fr_energy">    -37.84947975 </i>
    <i name="e_wo_entrp">    -37.84947975 </i>
    <i name="e_0_energy">    -37.84947975 </i>
   </energy>
  </scstep>
  <scstep>
   <time name="total">    9.03    9.05</time>
   <energy>
    <i name="e_fr_energy">    -10.99777329 </i>
    <i name="e_wo_entrp">    -10.99777329 </i>
    <i name="e_0_energy">    -10.99777329 </i>
   </energy>
  </scstep>
  <scstep>
   <time name="total">    8.11    8.13</time>
   <energy>
    <i name="e_fr_energy">    -13.68705666 </i>
    <i name="e_wo_entrp">    -13.68705666 </i>
    <i name="e_0_energy">    -13.68705666 </i>
   </energy>
  </scstep>
  <scstep>
   <time name="total">    8.15    8.17</time>
   <energy>
    <i name="e_fr_energy">    -13.49417371 </i>
    <i name="e_wo_entrp">    -13.49417371 </i>
    <i name="e_0_energy">    -13.49417371 </i>
   </energy>
  </scstep>
  <scstep>
   <time name="total">    8.20    8.22</time>
   <energy>
    <i name="e_fr_energy">    -13.56977768 </i>
    <i name="e_wo_entrp">    -13.56977768 </i>
    <i name="e_0_energy">    -13.56977768 </i>
   </energy>
  </scstep>
  <scstep>
   <time name="total">    8.43    8.45</time>
   <energy>
    <i name="e_fr_energy">    -13.63947815 </i>
    <i name="e_wo_entrp">    -13.63947815 </i>
    <i name="e_0_energy">    -13.63947815 </i>
   </energy>
  </scstep>
  <scstep>
   <time name="total">    8.19    8.21</time>
   <energy>
    <i name="e_fr_energy">    -13.66642511 </i>
    <i name="e_wo_entrp">    -13.66642511 </i>
    <i name="e_0_energy">    -13.66642511 </i>
   </energy>
  </scstep>
  <scstep>
   <time name="total">    8.23    8.25</time>
   <energy>
    <i name="e_fr_energy">    -13.66855614 </i>
    <i name="e_wo_entrp">    -13.66855614 </i>
    <i name="e_0_energy">    -13.66855614 </i>
   </energy>
  </scstep>
  <scstep>
   <time name="total">    8.28    8.30</time>
   <energy>
    <i name="e_fr_energy">    -13.67033092 </i>
    <i name="e_wo_entrp">    -13.67033092 </i>
    <i name="e_0_energy">    -13.67033092 </i>
   </energy>
  </scstep>
  <scstep>
   <time name="total">    8.68    8.70</time>
   <energy>
    <i name="e_fr_energy">    -13.67035638 </i>
    <i name="e_wo_entrp">    -13.67035638 </i>
    <i name="e_0_energy">    -13.67035638 </i>
   </energy>
  </scstep>
  <scstep>
   <time name="total">    9.06    9.08</time>
   <energy>
    <i name="e_fr_energy">    -13.67041461 </i>
    <i name="e_wo_entrp">    -13.67041461 </i>
    <i name="e_0_energy">    -13.67041461 </i>
   </energy>
  </scstep>
  <scstep>
   <time name="total">    9.76    9.78</time>
   <energy>
    <i name="e_fr_energy">    -13.67041541 </i>
    <i name="e_wo_entrp">    -13.67041541 </i>
    <i name="e_0_energy">    -13.67041541 </i>
   </energy>
  </scstep>
  <scstep>
   <time name="total">    9.73    9.75</time>
   <energy>
    <i name="e_fr_energy">    -13.67041964 </i>
    <i name="e_wo_entrp">    -13.67041964 </i>
    <i name="e_0_energy">    -13.67041964 </i>
   </energy>
  </scstep>
  <scstep>
   <time name="total">    9.11    9.13</time>
   <energy>
    <i name="e_fr_energy">    -13.67041997 </i>
    <i name="e_wo_entrp">    -13.67041997 </i>
    <i name="e_0_energy">    -13.67041997 </i>
   </energy>
  </scstep>
  <scstep>
   <time name="total">    9.03    9.05</time>
   <energy>
    <i name="e_fr_energy">    -11.52685414 </i>
    <i name="e_wo_entrp">    -11.52685414 </i>
    <i name="e_0_energy">    -11.52685414 </i>
   </energy>
  </scstep>
  <scstep>
   <time name="total">    8.07    8.09</time>
   <energy>
    <i name="e_fr_energy">    -14.63372857 </i>
    <i name="e_wo_entrp">    -14.63372857 </i>
    <i name="e_0_energy">    -14.63372857 </i>
   </energy>
  </scstep>
  <scstep>
   <time name="total">    8.36    8.38</time>
   <energy>
    <i name="e_fr_energy">    -14.14720267 </i>
    <i name="e_wo_entrp">    -14.14720267 </i>
    <i name="e_0_energy">    -14.14720267 </i>
   </energy>
  </scstep>
  <scstep>
   <time name="total">    8.18    8.19</time>
   <energy>
    <i name="e_fr_energy">    -14.15655798 </i>
    <i name="e_wo_entrp">    -14.15655798 </i>
    <i name="e_0_energy">    -14.15655798 </i>
   </energy>
  </scstep>
  <scstep>
   <time name="total">    8.13    8.15</time>
   <energy>
    <i name="e_fr_energy">    -14.25593496 </i>
    <i name="e_wo_entrp">    -14.25593496 </i>
    <i name="e_0_energy">    -14.25593496 </i>
   </energy>
  </scstep>
  <scstep>
   <time name="total">    8.33    8.35</time>
   <energy>
    <i name="e_fr_energy">    -14.28147047 </i>
    <i name="e_wo_entrp">    -14.28147047 </i>
    <i name="e_0_energy">    -14.28147047 </i>
   </energy>
  </scstep>
  <scstep>
   <time name="total">    8.34    8.35</time>
   <energy>
    <i name="e_fr_energy">    -14.28758195 </i>
    <i name="e_wo_entrp">    -14.28758195 </i>
    <i name="e_0_energy">    -14.28758195 </i>
   </energy>
  </scstep>
  <scstep>
   <time name="total">    8.72    8.74</time>
   <energy>
    <i name="e_fr_energy">    -14.28843666 </i>
    <i name="e_wo_entrp">    -14.28843666 </i>
    <i name="e_0_energy">    -14.28843666 </i>
   </energy>
  </scstep>
  <scstep>
   <time name="total">    9.05    9.07</time>
   <energy>
    <i name="e_fr_energy">    -14.28871706 </i>
    <i name="e_wo_entrp">    -14.28871706 </i>
    <i name="e_0_energy">    -14.28871706 </i>
   </energy>
  </scstep>
  <scstep>
   <time name="total">    9.62    9.64</time>
   <energy>
    <i name="e_fr_energy">    -14.28855791 </i>
    <i name="e_wo_entrp">    -14.28855791 </i>
    <i name="e_0_energy">    -14.28855791 </i>
   </energy>
  </scstep>
  <scstep>
   <time name="total">    9.93    9.95</time>
   <energy>
    <i name="e_fr_energy">    -14.28858048 </i>
    <i name="e_wo_entrp">    -14.28858048 </i>
    <i name="e_0_energy">    -14.28858048 </i>
   </energy>
  </scstep>
  <scstep>
   <time name="total">   10.01   10.03</time>
   <energy>
    <i name="e_fr_energy">    -14.28851856 </i>
    <i name="e_wo_entrp">    -14.28851856 </i>
    <i name="e_0_energy">    -14.28851856 </i>
   </energy>
  </scstep>
  <scstep>
   <time name="total">    9.46    9.48</time>
   <energy>
    <i name="e_fr_energy">    -14.28867673 </i>
    <i name="e_wo_entrp">    -14.28867673 </i>
    <i name="e_0_energy">    -14.28867673 </i>
   </energy>
  </scstep>
  <scstep>
   <time name="total">    9.34    9.36</time>
   <energy>
    <i name="e_fr_energy">    -14.28857590 </i>
    <i name="e_wo_entrp">    -14.28857590 </i>
    <i name="e_0_energy">    -14.28857590 </i>
   </energy>
  </scstep>
  <scstep>
   <time name="total">    9.15    9.17</time>
   <energy>
    <i name="e_fr_energy">    -14.28870386 </i>
    <i name="e_wo_entrp">    -14.28870386 </i>
    <i name="e_0_energy">    -14.28870386 </i>
   </energy>
  </scstep>
  <scstep>
   <time name="total">    9.41    9.43</time>
   <energy>
    <i name="e_fr_energy">    -14.28863591 </i>
    <i name="e_wo_entrp">    -14.28863591 </i>
    <i name="e_0_energy">    -14.28863591 </i>
   </energy>
  </scstep>
  <scstep>
   <time name="total">    9.17    9.19</time>
   <energy>
    <i name="e_fr_energy">    -14.28877726 </i>
    <i name="e_wo_entrp">    -14.28877726 </i>
    <i name="e_0_energy">    -14.28877726 </i>
   </energy>
  </scstep>
  <scstep>
   <time name="total">    9.14    9.16</time>
   <energy>
    <i name="e_fr_energy">    -14.28880951 </i>
    <i name="e_wo_entrp">    -14.28880951 </i>
    <i name="e_0_energy">    -14.28880951 </i>
   </energy>
  </scstep>
  <scstep>
   <time name="total">    9.15    9.17</time>
   <energy>
    <i name="e_fr_energy">    -14.28877650 </i>
    <i name="e_wo_entrp">    -14.28877650 </i>
    <i name="e_0_energy">    -14.28877650 </i>
   </energy>
  </scstep>
  <scstep>
   <time name="total">    9.15    9.17</time>
   <energy>
    <i name="e_fr_energy">    -14.28869999 </i>
    <i name="e_wo_entrp">    -14.28869999 </i>
    <i name="e_0_energy">    -14.28869999 </i>
   </energy>
  </scstep>
  <scstep>
   <time name="total">    9.33    9.35</time>
   <energy>
    <i name="e_fr_energy">    -14.28861379 </i>
    <i name="e_wo_entrp">    -14.28861379 </i>
    <i name="e_0_energy">    -14.28861379 </i>
   </energy>
  </scstep>
  <scstep>
   <time name="total">    9.12    9.14</time>
   <energy>
    <i name="e_fr_energy">    -14.28869308 </i>
    <i name="e_wo_entrp">    -14.28869308 </i>
    <i name="e_0_energy">    -14.28869308 </i>
   </energy>
  </scstep>
  <varray name="epsilon" >
   <v>      59.20489588       0.00689909      -0.00001006 </v>
   <v>       0.00595665      21.68963845       0.00000050 </v>
   <v>       0.00001372      -0.00000209      22.66887225 </v>
  </varray>
  <array name="born_charges" >
   <dimension dim="1">ion</dimension>
   <set>
    <v>       1.22023242      -0.28196254      -0.11300669 </v>
    <v>      -0.13052582       1.49201419      -0.13823391 </v>
    <v>      -0.00147121       0.09251999       1.48010941 </v>
   </set>
   <set>
    <v>       1.21989040      -0.28430306       0.11646812 </v>
    <v>      -0.13132761       1.49117180       0.13886340 </v>
    <v>       0.00229896      -0.09374019       1.47911853 </v>
   </set>
   <set>
    <v>       1.21262201       0.33680408      -0.10263355 </v>
    <v>       0.13175330       1.49154733       0.14125010 </v>
    <v>      -0.00405676      -0.09127649       1.47910067 </v>
   </set>
   <set>
    <v>       1.21212399       0.33997260       0.10732134 </v>
    <v>       0.13079629       1.49303923      -0.13845918 </v>
    <v>       0.00473051       0.09266989       1.47825942 </v>
   </set>
   <set>
    <v>       1.21958932       0.28469640      -0.11739652 </v>
    <v>       0.13010154       1.49301818       0.13722189 </v>
    <v>      -0.00234483      -0.09396404       1.47937828 </v>
   </set>
   <set>
    <v>       1.22008355       0.28152959       0.11270469 </v>
    <v>       0.13105874       1.49152720      -0.14001534 </v>
    <v>       0.00168043       0.09256585       1.48020986 </v>
   </set>
   <set>
    <v>       1.21247860      -0.33735648       0.10347276 </v>
    <v>      -0.13096999       1.49317083       0.13964299 </v>
    <v>       0.00412404      -0.09140844       1.47948026 </v>
   </set>
   <set>
    <v>       1.21213384      -0.33969964      -0.10693160 </v>
    <v>      -0.13177161       1.49232854      -0.14027312 </v>
    <v>      -0.00496645       0.09262897       1.47847938 </v>
   </set>
   <set>
    <v>      -2.46531770       0.02257122      -0.00059560 </v>
    <v>       0.38664008      -2.98328329       0.00005635 </v>
    <v>       0.00455777       0.00058520      -2.95939326 </v>
   </set>
   <set>
    <v>      -2.46406761      -0.02170273      -0.00074339 </v>
    <v>      -0.38560787      -2.98480818      -0.00142038 </v>
    <v>      -0.00464626       0.00048012      -2.95959696 </v>
   </set>
   <set>
    <v>      -2.39939203       0.13517281       0.00059249 </v>
    <v>       0.38209904      -2.98513024      -0.00005263 </v>
    <v>      -0.00456023      -0.00056232      -2.95751205 </v>
   </set>
   <set>
    <v>      -2.40037679      -0.13572224       0.00074796 </v>
    <v>      -0.38224610      -2.98459560       0.00141983 </v>
    <v>       0.00465405      -0.00049854      -2.95763353 </v>
   </set>
  </array>
  <time name="totalsc"> 1001.26 1004.14</time>
  <eigenvalues>
   <array>
    <dimension dim="1">band</dimension>
    <dimension dim="2">kpoint</dimension>
    <dimension dim="3">spin</dimension>
    <field>eigene</field>
    <field>occ</field>
    <set>
     <set comment="spin 1">
      <set comment="kpoint 1">
       <r>   -7.4639    1.0000 </r>
       <r>   -6.9476    1.0000 </r>
       <r>   -6.8238    1.0000 </r>
       <r>   -6.6844    1.0000 </r>
       <r>   -0.3461    1.0000 </r>
       <r>    0.2821    1.0000 </r>
       <r>    0.3229    1.0000 </r>
       <r>    0.5971    1.0000 </r>
       <r>    0.6017    1.0000 </r>
       <r>    0.7485    1.0000 </r>
       <r>    0.8022    1.0000 </r>
       <r>    0.8951    1.0000 </r>
       <r>    0.9204    1.0000 </r>
       <r>    1.1996    1.0000 </r>
       <r>    1.3653    1.0000 </r>
       <r>    1.3962    1.0000 </r>
       <r>    1.4060    1.0000 </r>
       <r>    1.4408    1.0000 </r>
       <r>    1.4460    1.0000 </r>
       <r>    1.5306    1.0000 </r>
       <r>    1.7686    1.0000 </r>
       <r>    1.7934    1.0000 </r>
       <r>    1.9068    1.0000 </r>
       <r>    1.9116    1.0000 </r>
       <r>    1.9446    1.0000 </r>
       <r>    2.0660    1.0000 </r>
       <r>    2.0918    1.0000 </r>
       <r>    2.1673    1.0000 </r>
       <r>    2.1692    1.0000 </r>
       <r>    2.1745    1.0000 </r>
       <r>    2.1847    1.0000 </r>
       <r>    2.2318    1.0000 </r>
       <r>    2.3297    1.0000 </r>
       <r>    2.4382    1.0000 </r>
       <r>    2.5184    1.0000 </r>
       <r>    2.7467    1.0000 </r>
       <r>    2.7563    1.0000 </r>
       <r>    2.8239    1.0000 </r>
       <r>    2.8749    1.0000 </r>
       <r>    2.8798    1.0000 </r>
       <r>    2.9371    1.0000 </r>
       <r>    2.9967    1.0000 </r>
       <r>    3.0186    1.0000 </r>
       <r>    3.0389    1.0000 </r>
       <r>    3.0402    1.0000 </r>
       <r>    3.2905    1.0000 </r>
       <r>    3.7358    1.0000 </r>
       <r>    4.1917    1.0000 </r>
       <r>    4.3528    1.0000 </r>
       <r>    4.6577    1.0000 </r>
       <r>    4.7471    1.0000 </r>
       <r>    5.2274    1.0000 </r>
       <r>    5.7981    1.0000 </r>
       <r>    5.8715    1.0000 </r>
       <r>    5.9464    1.0000 </r>
       <r>    6.2205    0.8931 </r>
       <r>    6.5285    0.0000 </r>
       <r>    6.6536    0.0000 </r>
       <r>    6.7228    0.0000 </r>
       <r>    7.3951    0.0000 </r>
       <r>    7.9769    0.0000 </r>
       <r>    9.1948    0.0000 </r>
       <r>   10.6510    0.0000 </r>
       <r>   10.8529    0.0000 </r>
       <r>   11.1895    0.0000 </r>
       <r>   11.7790    0.0000 </r>
       <r>   11.9142    0.0000 </r>
       <r>   12.6073    0.0000 </r>
       <r>   12.6694    0.0000 </r>
       <r>   13.4267    0.0000 </r>
       <r>   13.9635    0.0000 </r>
       <r>   14.0003    0.0000 </r>
       <r>   14.2789    0.0000 </r>
       <r>   14.4151    0.0000 </r>
       <r>   14.6090    0.0000 </r>
       <r>   14.7864    0.0000 </r>
       <r>   14.7867    0.0000 </r>
       <r>   15.1610    0.0000 </r>
       <r>   15.1798    0.0000 </r>
       <r>   15.4755    0.0000 </r>
      </set>
      <set comment="kpoint 2">
       <r>   -7.3931    1.0000 </r>
       <r>   -7.0284    1.0000 </r>
       <r>   -6.8037    1.0000 </r>
       <r>   -6.7051    1.0000 </r>
       <r>   -0.2006    1.0000 </r>
       <r>    0.2696    1.0000 </r>
       <r>    0.2770    1.0000 </r>
       <r>    0.4867    1.0000 </r>
       <r>    0.6272    1.0000 </r>
       <r>    0.7421    1.0000 </r>
       <r>    0.8499    1.0000 </r>
       <r>    0.8687    1.0000 </r>
       <r>    0.9045    1.0000 </r>
       <r>    1.2455    1.0000 </r>
       <r>    1.2665    1.0000 </r>
       <r>    1.3024    1.0000 </r>
       <r>    1.3024    1.0000 </r>
       <r>    1.4309    1.0000 </r>
       <r>    1.4899    1.0000 </r>
       <r>    1.4992    1.0000 </r>
       <r>    1.7588    1.0000 </r>
       <r>    1.7955    1.0000 </r>
       <r>    1.8353    1.0000 </r>
       <r>    1.9034    1.0000 </r>
       <r>    1.9316    1.0000 </r>
       <r>    1.9600    1.0000 </r>
       <r>    2.0947    1.0000 </r>
       <r>    2.1177    1.0000 </r>
       <r>    2.1637    1.0000 </r>
       <r>    2.1861    1.0000 </r>
       <r>    2.3513    1.0000 </r>
       <r>    2.4061    1.0000 </r>
       <r>    2.4872    1.0000 </r>
       <r>    2.5583    1.0000 </r>
       <r>    2.5729    1.0000 </r>
       <r>    2.6862    1.0000 </r>
       <r>    2.7172    1.0000 </r>
       <r>    2.8194    1.0000 </r>
       <r>    2.8609    1.0000 </r>
       <r>    2.9335    1.0000 </r>
       <r>    2.9528    1.0000 </r>
       <r>    2.9656    1.0000 </r>
       <r>    3.0153    1.0000 </r>
       <r>    3.0685    1.0000 </r>
       <r>    3.1974    1.0000 </r>
       <r>    3.2699    1.0000 </r>
       <r>    3.8511    1.0000 </r>
       <r>    4.0101    1.0000 </r>
       <r>    4.0885    1.0000 </r>
       <r>    4.3893    1.0000 </r>
       <r>    4.7814    1.0000 </r>
       <r>    5.0899    1.0000 </r>
       <r>    5.5924    1.0000 </r>
       <r>    5.8344    1.0000 </r>
       <r>    5.9597    1.0000 </r>
       <r>    6.1304    0.9999 </r>
       <r>    6.7219    0.0000 </r>
       <r>    6.7997    0.0000 </r>
       <r>    7.5425    0.0000 </r>
       <r>    8.0358    0.0000 </r>
       <r>    8.2197    0.0000 </r>
       <r>    9.5947    0.0000 </r>
       <r>   10.2268    0.0000 </r>
       <r>   10.4083    0.0000 </r>
       <r>   10.7930    0.0000 </r>
       <r>   11.3231    0.0000 </r>
       <r>   12.0345    0.0000 </r>
       <r>   12.0769    0.0000 </r>
       <r>   12.5050    0.0000 </r>
       <r>   12.9483    0.0000 </r>
       <r>   13.1184    0.0000 </r>
       <r>   13.3250    0.0000 </r>
       <r>   13.6536    0.0000 </r>
       <r>   13.7299    0.0000 </r>
       <r>   14.5207    0.0000 </r>
       <r>   14.8387    0.0000 </r>
       <r>   15.4307    0.0000 </r>
       <r>   15.4370    0.0000 </r>
       <r>   15.4964    0.0000 </r>
       <r>   16.5181    0.0000 </r>
      </set>
      <set comment="kpoint 3">
       <r>   -7.2157    1.0000 </r>
       <r>   -7.2157    1.0000 </r>
       <r>   -6.7547    1.0000 </r>
       <r>   -6.7547    1.0000 </r>
       <r>    0.1596    1.0000 </r>
       <r>    0.1596    1.0000 </r>
       <r>    0.2367    1.0000 </r>
       <r>    0.2367    1.0000 </r>
       <r>    0.7207    1.0000 </r>
       <r>    0.7207    1.0000 </r>
       <r>    0.8977    1.0000 </r>
       <r>    0.8978    1.0000 </r>
       <r>    0.9459    1.0000 </r>
       <r>    0.9459    1.0000 </r>
       <r>    1.2242    1.0000 </r>
       <r>    1.2242    1.0000 </r>
       <r>    1.4366    1.0000 </r>
       <r>    1.4366    1.0000 </r>
       <r>    1.4516    1.0000 </r>
       <r>    1.4516    1.0000 </r>
       <r>    1.7183    1.0000 </r>
       <r>    1.7183    1.0000 </r>
       <r>    1.8326    1.0000 </r>
       <r>    1.8327    1.0000 </r>
       <r>    2.0220    1.0000 </r>
       <r>    2.0220    1.0000 </r>
       <r>    2.0301    1.0000 </r>
       <r>    2.0301    1.0000 </r>
       <r>    2.2123    1.0000 </r>
       <r>    2.2123    1.0000 </r>
       <r>    2.5441    1.0000 </r>
       <r>    2.5441    1.0000 </r>
       <r>    2.6553    1.0000 </r>
       <r>    2.6554    1.0000 </r>
       <r>    2.7036    1.0000 </r>
       <r>    2.7036    1.0000 </r>
       <r>    2.7469    1.0000 </r>
       <r>    2.7469    1.0000 </r>
       <r>    2.8500    1.0000 </r>
       <r>    2.8500    1.0000 </r>
       <r>    2.8515    1.0000 </r>
       <r>    2.8515    1.0000 </r>
       <r>    3.0079    1.0000 </r>
       <r>    3.0079    1.0000 </r>
       <r>    3.4443    1.0000 </r>
       <r>    3.4443    1.0000 </r>
       <r>    3.5615    1.0000 </r>
       <r>    3.5615    1.0000 </r>
       <r>    4.6226    1.0000 </r>
       <r>    4.6226    1.0000 </r>
       <r>    4.7534    1.0000 </r>
       <r>    4.7535    1.0000 </r>
       <r>    5.2268    1.0000 </r>
       <r>    5.2268    1.0000 </r>
       <r>    6.1646    0.9976 </r>
       <r>    6.1646    0.9976 </r>
       <r>    7.0197    0.0000 </r>
       <r>    7.0197    0.0000 </r>
       <r>    8.5205    0.0000 </r>
       <r>    8.5205    0.0000 </r>
       <r>    9.2845    0.0000 </r>
       <r>    9.2846    0.0000 </r>
       <r>    9.8070    0.0000 </r>
       <r>    9.8070    0.0000 </r>
       <r>   10.6463    0.0000 </r>
       <r>   10.6463    0.0000 </r>
       <r>   11.8232    0.0000 </r>
       <r>   11.8233    0.0000 </r>
       <r>   12.2649    0.0000 </r>
       <r>   12.2649    0.0000 </r>
       <r>   12.6970    0.0000 </r>
       <r>   12.6970    0.0000 </r>
       <r>   13.7269    0.0000 </r>
       <r>   13.7270    0.0000 </r>
       <r>   14.2476    0.0000 </r>
       <r>   14.2476    0.0000 </r>
       <r>   15.3529    0.0000 </r>
       <r>   15.3529    0.0000 </r>
       <r>   16.7013    0.0000 </r>
       <r>   16.7014    0.0000 </r>
      </set>
      <set comment="kpoint 4">
       <r>   -7.3797    1.0000 </r>
       <r>   -6.9287    1.0000 </r>
       <r>   -6.9100    1.0000 </r>
       <r>   -6.7240    1.0000 </r>
       <r>   -0.1968    1.0000 </r>
       <r>    0.3603    1.0000 </r>
       <r>    0.3718    1.0000 </r>
       <r>    0.5372    1.0000 </r>
       <r>    0.5645    1.0000 </r>
       <r>    0.6347    1.0000 </r>
       <r>    0.8060    1.0000 </r>
       <r>    0.8700    1.0000 </r>
       <r>    0.9009    1.0000 </r>
       <r>    1.2245    1.0000 </r>
       <r>    1.2837    1.0000 </r>
       <r>    1.2871    1.0000 </r>
       <r>    1.3265    1.0000 </r>
       <r>    1.4791    1.0000 </r>
       <r>    1.6048    1.0000 </r>
       <r>    1.6555    1.0000 </r>
       <r>    1.7000    1.0000 </r>
       <r>    1.7325    1.0000 </r>
       <r>    1.8949    1.0000 </r>
       <r>    1.9029    1.0000 </r>
       <r>    1.9317    1.0000 </r>
       <r>    1.9731    1.0000 </r>
       <r>    2.0392    1.0000 </r>
       <r>    2.0478    1.0000 </r>
       <r>    2.1439    1.0000 </r>
       <r>    2.2567    1.0000 </r>
       <r>    2.3182    1.0000 </r>
       <r>    2.3620    1.0000 </r>
       <r>    2.3915    1.0000 </r>
       <r>    2.4126    1.0000 </r>
       <r>    2.6061    1.0000 </r>
       <r>    2.7665    1.0000 </r>
       <r>    2.7899    1.0000 </r>
       <r>    2.8220    1.0000 </r>
       <r>    2.8832    1.0000 </r>
       <r>    2.9015    1.0000 </r>
       <r>    2.9542    1.0000 </r>
       <r>    2.9625    1.0000 </r>
       <r>    3.0048    1.0000 </r>
       <r>    3.0369    1.0000 </r>
       <r>    3.2667    1.0000 </r>
       <r>    3.3187    1.0000 </r>
       <r>    3.5306    1.0000 </r>
       <r>    3.9341    1.0000 </r>
       <r>    4.2202    1.0000 </r>
       <r>    4.4023    1.0000 </r>
       <r>    4.5382    1.0000 </r>
       <r>    5.1408    1.0000 </r>
       <r>    5.8292    1.0000 </r>
       <r>    5.9459    1.0000 </r>
       <r>    6.0254    1.0000 </r>
       <r>    6.2402    0.7535 </r>
       <r>    6.7056    0.0000 </r>
       <r>    6.7494    0.0000 </r>
       <r>    7.4869    0.0000 </r>
       <r>    7.6734    0.0000 </r>
       <r>    8.0142    0.0000 </r>
       <r>   10.0085    0.0000 </r>
       <r>   10.3098    0.0000 </r>
       <r>   10.5887    0.0000 </r>
       <r>   10.7574    0.0000 </r>
       <r>   11.2180    0.0000 </r>
       <r>   11.8521    0.0000 </r>
       <r>   12.1139    0.0000 </r>
       <r>   12.1556    0.0000 </r>
       <r>   13.2474    0.0000 </r>
       <r>   13.3817    0.0000 </r>
       <r>   13.6095    0.0000 </r>
       <r>   13.9342    0.0000 </r>
       <r>   14.0105    0.0000 </r>
       <r>   14.7789    0.0000 </r>
       <r>   15.2112    0.0000 </r>
       <r>   15.4699    0.0000 </r>
       <r>   15.6366    0.0000 </r>
       <r>   15.7499    0.0000 </r>
       <r>   15.8068    0.0000 </r>
      </set>
      <set comment="kpoint 5">
       <r>   -7.3145    1.0000 </r>
       <r>   -6.9827    1.0000 </r>
       <r>   -6.8989    1.0000 </r>
       <r>   -6.7541    1.0000 </r>
       <r>   -0.1042    1.0000 </r>
       <r>    0.2555    1.0000 </r>
       <r>    0.3155    1.0000 </r>
       <r>    0.4201    1.0000 </r>
       <r>    0.6407    1.0000 </r>
       <r>    0.6557    1.0000 </r>
       <r>    0.8443    1.0000 </r>
       <r>    0.8865    1.0000 </r>
       <r>    0.9430    1.0000 </r>
       <r>    1.1521    1.0000 </r>
       <r>    1.2490    1.0000 </r>
       <r>    1.2901    1.0000 </r>
       <r>    1.3797    1.0000 </r>
       <r>    1.4458    1.0000 </r>
       <r>    1.5312    1.0000 </r>
       <r>    1.5416    1.0000 </r>
       <r>    1.6616    1.0000 </r>
       <r>    1.7036    1.0000 </r>
       <r>    1.8219    1.0000 </r>
       <r>    1.8955    1.0000 </r>
       <r>    1.9406    1.0000 </r>
       <r>    1.9790    1.0000 </r>
       <r>    2.0585    1.0000 </r>
       <r>    2.2156    1.0000 </r>
       <r>    2.2387    1.0000 </r>
       <r>    2.2919    1.0000 </r>
       <r>    2.3347    1.0000 </r>
       <r>    2.4209    1.0000 </r>
       <r>    2.5008    1.0000 </r>
       <r>    2.5473    1.0000 </r>
       <r>    2.6056    1.0000 </r>
       <r>    2.6361    1.0000 </r>
       <r>    2.7003    1.0000 </r>
       <r>    2.8322    1.0000 </r>
       <r>    2.8403    1.0000 </r>
       <r>    2.8884    1.0000 </r>
       <r>    2.9020    1.0000 </r>
       <r>    2.9835    1.0000 </r>
       <r>    2.9990    1.0000 </r>
       <r>    3.0699    1.0000 </r>
       <r>    3.3370    1.0000 </r>
       <r>    3.3866    1.0000 </r>
       <r>    3.6658    1.0000 </r>
       <r>    3.8714    1.0000 </r>
       <r>    4.2749    1.0000 </r>
       <r>    4.4900    1.0000 </r>
       <r>    4.5667    1.0000 </r>
       <r>    5.0607    1.0000 </r>
       <r>    5.3920    1.0000 </r>
       <r>    5.6608    1.0000 </r>
       <r>    5.7444    1.0000 </r>
       <r>    5.8087    1.0000 </r>
       <r>    7.2948    0.0000 </r>
       <r>    7.5626    0.0000 </r>
       <r>    7.6434    0.0000 </r>
       <r>    7.9310    0.0000 </r>
       <r>    8.5791    0.0000 </r>
       <r>   10.0857    0.0000 </r>
       <r>   10.1225    0.0000 </r>
       <r>   10.3028    0.0000 </r>
       <r>   10.5454    0.0000 </r>
       <r>   10.8036    0.0000 </r>
       <r>   11.8380    0.0000 </r>
       <r>   11.8959    0.0000 </r>
       <r>   12.4208    0.0000 </r>
       <r>   12.5321    0.0000 </r>
       <r>   13.0532    0.0000 </r>
       <r>   13.3943    0.0000 </r>
       <r>   13.5348    0.0000 </r>
       <r>   14.1707    0.0000 </r>
       <r>   14.3596    0.0000 </r>
       <r>   14.9015    0.0000 </r>
       <r>   15.1203    0.0000 </r>
       <r>   15.2043    0.0000 </r>
       <r>   15.7692    0.0000 </r>
       <r>   15.8432    0.0000 </r>
      </set>
      <set comment="kpoint 6">
       <r>   -7.1523    1.0000 </r>
       <r>   -7.1523    1.0000 </r>
       <r>   -6.8267    1.0000 </r>
       <r>   -6.8267    1.0000 </r>
       <r>    0.1403    1.0000 </r>
       <r>    0.1403    1.0000 </r>
       <r>    0.2124    1.0000 </r>
       <r>    0.2124    1.0000 </r>
       <r>    0.7679    1.0000 </r>
       <r>    0.7679    1.0000 </r>
       <r>    0.8313    1.0000 </r>
       <r>    0.8314    1.0000 </r>
       <r>    1.0466    1.0000 </r>
       <r>    1.0466    1.0000 </r>
       <r>    1.2296    1.0000 </r>
       <r>    1.2297    1.0000 </r>
       <r>    1.4399    1.0000 </r>
       <r>    1.4400    1.0000 </r>
       <r>    1.4517    1.0000 </r>
       <r>    1.4517    1.0000 </r>
       <r>    1.6776    1.0000 </r>
       <r>    1.6776    1.0000 </r>
       <r>    1.7623    1.0000 </r>
       <r>    1.7624    1.0000 </r>
       <r>    2.0895    1.0000 </r>
       <r>    2.0895    1.0000 </r>
       <r>    2.1117    1.0000 </r>
       <r>    2.1117    1.0000 </r>
       <r>    2.2397    1.0000 </r>
       <r>    2.2398    1.0000 </r>
       <r>    2.4723    1.0000 </r>
       <r>    2.4723    1.0000 </r>
       <r>    2.6255    1.0000 </r>
       <r>    2.6255    1.0000 </r>
       <r>    2.6274    1.0000 </r>
       <r>    2.6274    1.0000 </r>
       <r>    2.7540    1.0000 </r>
       <r>    2.7540    1.0000 </r>
       <r>    2.8428    1.0000 </r>
       <r>    2.8428    1.0000 </r>
       <r>    2.8815    1.0000 </r>
       <r>    2.8816    1.0000 </r>
       <r>    2.9807    1.0000 </r>
       <r>    2.9807    1.0000 </r>
       <r>    3.6362    1.0000 </r>
       <r>    3.6362    1.0000 </r>
       <r>    3.6388    1.0000 </r>
       <r>    3.6388    1.0000 </r>
       <r>    4.5534    1.0000 </r>
       <r>    4.5534    1.0000 </r>
       <r>    4.8154    1.0000 </r>
       <r>    4.8154    1.0000 </r>
       <r>    5.2103    1.0000 </r>
       <r>    5.2103    1.0000 </r>
       <r>    5.4693    1.0000 </r>
       <r>    5.4693    1.0000 </r>
       <r>    7.8726    0.0000 </r>
       <r>    7.8727    0.0000 </r>
       <r>    8.3641    0.0000 </r>
       <r>    8.3642    0.0000 </r>
       <r>    9.3478    0.0000 </r>
       <r>    9.3478    0.0000 </r>
       <r>    9.5597    0.0000 </r>
       <r>    9.5598    0.0000 </r>
       <r>   11.1288    0.0000 </r>
       <r>   11.1288    0.0000 </r>
       <r>   11.6239    0.0000 </r>
       <r>   11.6239    0.0000 </r>
       <r>   12.2864    0.0000 </r>
       <r>   12.2865    0.0000 </r>
       <r>   12.7222    0.0000 </r>
       <r>   12.7222    0.0000 </r>
       <r>   13.6580    0.0000 </r>
       <r>   13.6580    0.0000 </r>
       <r>   14.2953    0.0000 </r>
       <r>   14.2954    0.0000 </r>
       <r>   14.5960    0.0000 </r>
       <r>   14.5960    0.0000 </r>
       <r>   16.0356    0.0000 </r>
       <r>   16.0358    0.0000 </r>
      </set>
      <set comment="kpoint 7">
       <r>   -7.3145    1.0000 </r>
       <r>   -6.9826    1.0000 </r>
       <r>   -6.8989    1.0000 </r>
       <r>   -6.7541    1.0000 </r>
       <r>   -0.1042    1.0000 </r>
       <r>    0.2555    1.0000 </r>
       <r>    0.3155    1.0000 </r>
       <r>    0.4201    1.0000 </r>
       <r>    0.6407    1.0000 </r>
       <r>    0.6557    1.0000 </r>
       <r>    0.8443    1.0000 </r>
       <r>    0.8865    1.0000 </r>
       <r>    0.9430    1.0000 </r>
       <r>    1.1521    1.0000 </r>
       <r>    1.2490    1.0000 </r>
       <r>    1.2901    1.0000 </r>
       <r>    1.3797    1.0000 </r>
       <r>    1.4458    1.0000 </r>
       <r>    1.5312    1.0000 </r>
       <r>    1.5416    1.0000 </r>
       <r>    1.6616    1.0000 </r>
       <r>    1.7036    1.0000 </r>
       <r>    1.8219    1.0000 </r>
       <r>    1.8955    1.0000 </r>
       <r>    1.9405    1.0000 </r>
       <r>    1.9791    1.0000 </r>
       <r>    2.0585    1.0000 </r>
       <r>    2.2156    1.0000 </r>
       <r>    2.2387    1.0000 </r>
       <r>    2.2919    1.0000 </r>
       <r>    2.3347    1.0000 </r>
       <r>    2.4209    1.0000 </r>
       <r>    2.5008    1.0000 </r>
       <r>    2.5473    1.0000 </r>
       <r>    2.6056    1.0000 </r>
       <r>    2.6361    1.0000 </r>
       <r>    2.7003    1.0000 </r>
       <r>    2.8322    1.0000 </r>
       <r>    2.8403    1.0000 </r>
       <r>    2.8884    1.0000 </r>
       <r>    2.9020    1.0000 </r>
       <r>    2.9835    1.0000 </r>
       <r>    2.9990    1.0000 </r>
       <r>    3.0699    1.0000 </r>
       <r>    3.3369    1.0000 </r>
       <r>    3.3866    1.0000 </r>
       <r>    3.6658    1.0000 </r>
       <r>    3.8714    1.0000 </r>
       <r>    4.2749    1.0000 </r>
       <r>    4.4900    1.0000 </r>
       <r>    4.5667    1.0000 </r>
       <r>    5.0607    1.0000 </r>
       <r>    5.3920    1.0000 </r>
       <r>    5.6608    1.0000 </r>
       <r>    5.7444    1.0000 </r>
       <r>    5.8087    1.0000 </r>
       <r>    7.2948    0.0000 </r>
       <r>    7.5626    0.0000 </r>
       <r>    7.6434    0.0000 </r>
       <r>    7.9310    0.0000 </r>
       <r>    8.5790    0.0000 </r>
       <r>   10.0856    0.0000 </r>
       <r>   10.1224    0.0000 </r>
       <r>   10.3029    0.0000 </r>
       <r>   10.5454    0.0000 </r>
       <r>   10.8036    0.0000 </r>
       <r>   11.8380    0.0000 </r>
       <r>   11.8959    0.0000 </r>
       <r>   12.4209    0.0000 </r>
       <r>   12.5321    0.0000 </r>
       <r>   13.0532    0.0000 </r>
       <r>   13.3943    0.0000 </r>
       <r>   13.5348    0.0000 </r>
       <r>   14.1707    0.0000 </r>
       <r>   14.3596    0.0000 </r>
       <r>   14.9016    0.0000 </r>
       <r>   15.1204    0.0000 </r>
       <r>   15.2043    0.0000 </r>
       <r>   15.7691    0.0000 </r>
       <r>   15.8431    0.0000 </r>
      </set>
      <set comment="kpoint 8">
       <r>   -7.1643    1.0000 </r>
       <r>   -7.1643    1.0000 </r>
       <r>   -6.8180    1.0000 </r>
       <r>   -6.8180    1.0000 </r>
       <r>    0.1581    1.0000 </r>
       <r>    0.1581    1.0000 </r>
       <r>    0.4472    1.0000 </r>
       <r>    0.4472    1.0000 </r>
       <r>    0.6549    1.0000 </r>
       <r>    0.6549    1.0000 </r>
       <r>    0.6878    1.0000 </r>
       <r>    0.6878    1.0000 </r>
       <r>    1.0850    1.0000 </r>
       <r>    1.0850    1.0000 </r>
       <r>    1.2371    1.0000 </r>
       <r>    1.2371    1.0000 </r>
       <r>    1.3672    1.0000 </r>
       <r>    1.3672    1.0000 </r>
       <r>    1.7496    1.0000 </r>
       <r>    1.7496    1.0000 </r>
       <r>    1.7532    1.0000 </r>
       <r>    1.7532    1.0000 </r>
       <r>    1.7878    1.0000 </r>
       <r>    1.7879    1.0000 </r>
       <r>    1.9485    1.0000 </r>
[...]
       <r>   13.2042    0.0000 </r>
       <r>   13.2042    0.0000 </r>
       <r>   14.8336    0.0000 </r>
       <r>   14.8337    0.0000 </r>
       <r>   15.0086    0.0000 </r>
       <r>   15.0087    0.0000 </r>
       <r>   15.1985    0.0000 </r>
       <r>   15.1986    0.0000 </r>
       <r>   15.3345    0.0000 </r>
       <r>   15.3345    0.0000 </r>
      </set>
      <set comment="kpoint 52">
       <r>   -6.8934    1.0000 </r>
       <r>   -6.8934    1.0000 </r>
       <r>   -6.8934    1.0000 </r>
       <r>   -6.8934    1.0000 </r>
       <r>    0.0633    1.0000 </r>
       <r>    0.0633    1.0000 </r>
       <r>    0.0633    1.0000 </r>
       <r>    0.0634    1.0000 </r>
       <r>    0.8564    1.0000 </r>
       <r>    0.8564    1.0000 </r>
       <r>    0.8565    1.0000 </r>
       <r>    0.8565    1.0000 </r>
       <r>    1.3254    1.0000 </r>
       <r>    1.3255    1.0000 </r>
       <r>    1.3255    1.0000 </r>
       <r>    1.3255    1.0000 </r>
       <r>    1.5375    1.0000 </r>
       <r>    1.5376    1.0000 </r>
       <r>    1.5376    1.0000 </r>
       <r>    1.5376    1.0000 </r>
       <r>    1.6817    1.0000 </r>
       <r>    1.6817    1.0000 </r>
       <r>    1.6817    1.0000 </r>
       <r>    1.6818    1.0000 </r>
       <r>    1.8349    1.0000 </r>
       <r>    1.8349    1.0000 </r>
       <r>    1.8350    1.0000 </r>
       <r>    1.8350    1.0000 </r>
       <r>    2.3855    1.0000 </r>
       <r>    2.3855    1.0000 </r>
       <r>    2.3855    1.0000 </r>
       <r>    2.3855    1.0000 </r>
       <r>    2.4989    1.0000 </r>
       <r>    2.4989    1.0000 </r>
       <r>    2.4990    1.0000 </r>
       <r>    2.4990    1.0000 </r>
       <r>    2.6111    1.0000 </r>
       <r>    2.6111    1.0000 </r>
       <r>    2.6111    1.0000 </r>
       <r>    2.6111    1.0000 </r>
       <r>    2.9674    1.0000 </r>
       <r>    2.9674    1.0000 </r>
       <r>    2.9674    1.0000 </r>
       <r>    2.9674    1.0000 </r>
       <r>    3.2102    1.0000 </r>
       <r>    3.2102    1.0000 </r>
       <r>    3.2102    1.0000 </r>
       <r>    3.2102    1.0000 </r>
       <r>    4.8157    1.0000 </r>
       <r>    4.8157    1.0000 </r>
       <r>    4.8157    1.0000 </r>
       <r>    4.8158    1.0000 </r>
       <r>    5.3010    1.0000 </r>
       <r>    5.3010    1.0000 </r>
       <r>    5.3011    1.0000 </r>
       <r>    5.3011    1.0000 </r>
       <r>    7.4873    0.0000 </r>
       <r>    7.4873    0.0000 </r>
       <r>    7.4873    0.0000 </r>
       <r>    7.4873    0.0000 </r>
       <r>   10.4060    0.0000 </r>
       <r>   10.4061    0.0000 </r>
       <r>   10.4062    0.0000 </r>
       <r>   10.4062    0.0000 </r>
       <r>   12.1930    0.0000 </r>
       <r>   12.1930    0.0000 </r>
       <r>   12.1931    0.0000 </r>
       <r>   12.1931    0.0000 </r>
       <r>   13.1771    0.0000 </r>
       <r>   13.1771    0.0000 </r>
       <r>   13.1772    0.0000 </r>
       <r>   13.1772    0.0000 </r>
       <r>   14.1387    0.0000 </r>
       <r>   14.1388    0.0000 </r>
       <r>   14.1389    0.0000 </r>
       <r>   14.1390    0.0000 </r>
       <r>   15.2872    0.0000 </r>
       <r>   15.2872    0.0000 </r>
       <r>   15.2872    0.0000 </r>
       <r>   15.2873    0.0000 </r>
      </set>
     </set>
    </set>
   </array>
  </eigenvalues>
  <separator name="orbital magnetization" >
   <v name="MAGDIPOLOUT">      0.00000000      0.00000000      0.00000000</v>
  </separator>
  <dos>
   <i name="efermi">      6.26446159 </i>
   <total>
    <array>
     <dimension dim="1">gridpoints</dimension>
     <dimension dim="2">spin</dimension>
     <field>energy</field>
     <field>total</field>
     <field>integrated</field>
     <set>
      <set comment="spin 1">
       <r>    -8.6721     0.0000     0.0000 </r>
       <r>    -8.5835     0.0000     0.0000 </r>
       <r>    -8.4949     0.0000     0.0000 </r>
       <r>    -8.4063     0.0000     0.0000 </r>
       <r>    -8.3177     0.0000     0.0000 </r>
       <r>    -8.2291     0.0000     0.0000 </r>
       <r>    -8.1405     0.0000     0.0000 </r>
       <r>    -8.0519     0.0000     0.0000 </r>
       <r>    -7.9633     0.0000     0.0000 </r>
       <r>    -7.8747     0.0000     0.0000 </r>
       <r>    -7.7861     0.0000     0.0000 </r>
       <r>    -7.6975     0.0000     0.0000 </r>
       <r>    -7.6089     0.0000     0.0000 </r>
       <r>    -7.5203     0.0132     0.0012 </r>
       <r>    -7.4317     0.3593     0.0330 </r>
       <r>    -7.3431     1.9427     0.2051 </r>
       <r>    -7.2544     3.3268     0.4999 </r>
       <r>    -7.1658     4.3062     0.8815 </r>
       <r>    -7.0772     8.1766     1.6060 </r>
       <r>    -6.9886    11.8703     2.6577 </r>
       <r>    -6.9000    17.8351     4.2380 </r>
       <r>    -6.8114    20.2837     6.0353 </r>
       <r>    -6.7228    18.5048     7.6749 </r>
       <r>    -6.6342     3.6110     7.9949 </r>
       <r>    -6.5456     0.0578     8.0000 </r>
       <r>    -6.4570     0.0000     8.0000 </r>
       <r>    -6.3684     0.0000     8.0000 </r>
       <r>    -6.2798     0.0000     8.0000 </r>
       <r>    -6.1912     0.0000     8.0000 </r>
       <r>    -6.1026     0.0000     8.0000 </r>
       <r>    -6.0140     0.0000     8.0000 </r>
       <r>    -5.9254     0.0000     8.0000 </r>
       <r>    -5.8368     0.0000     8.0000 </r>
       <r>    -5.7481     0.0000     8.0000 </r>
       <r>    -5.6595     0.0000     8.0000 </r>
       <r>    -5.5709     0.0000     8.0000 </r>
       <r>    -5.4823     0.0000     8.0000 </r>
       <r>    -5.3937     0.0000     8.0000 </r>
       <r>    -5.3051     0.0000     8.0000 </r>
       <r>    -5.2165     0.0000     8.0000 </r>
       <r>    -5.1279     0.0000     8.0000 </r>
       <r>    -5.0393     0.0000     8.0000 </r>
       <r>    -4.9507     0.0000     8.0000 </r>
       <r>    -4.8621     0.0000     8.0000 </r>
       <r>    -4.7735     0.0000     8.0000 </r>
       <r>    -4.6849     0.0000     8.0000 </r>
       <r>    -4.5963     0.0000     8.0000 </r>
       <r>    -4.5077     0.0000     8.0000 </r>
       <r>    -4.4191     0.0000     8.0000 </r>
       <r>    -4.3305     0.0000     8.0000 </r>
       <r>    -4.2418     0.0000     8.0000 </r>
       <r>    -4.1532     0.0000     8.0000 </r>
       <r>    -4.0646     0.0000     8.0000 </r>
       <r>    -3.9760     0.0000     8.0000 </r>
       <r>    -3.8874     0.0000     8.0000 </r>
       <r>    -3.7988     0.0000     8.0000 </r>
       <r>    -3.7102     0.0000     8.0000 </r>
       <r>    -3.6216     0.0000     8.0000 </r>
       <r>    -3.5330     0.0000     8.0000 </r>
       <r>    -3.4444     0.0000     8.0000 </r>
       <r>    -3.3558     0.0000     8.0000 </r>
       <r>    -3.2672     0.0000     8.0000 </r>
       <r>    -3.1786     0.0000     8.0000 </r>
       <r>    -3.0900     0.0000     8.0000 </r>
       <r>    -3.0014     0.0000     8.0000 </r>
       <r>    -2.9128     0.0000     8.0000 </r>
       <r>    -2.8242     0.0000     8.0000 </r>
       <r>    -2.7355     0.0000     8.0000 </r>
       <r>    -2.6469     0.0000     8.0000 </r>
       <r>    -2.5583     0.0000     8.0000 </r>
       <r>    -2.4697     0.0000     8.0000 </r>
       <r>    -2.3811     0.0000     8.0000 </r>
       <r>    -2.2925     0.0000     8.0000 </r>
       <r>    -2.2039     0.0000     8.0000 </r>
       <r>    -2.1153     0.0000     8.0000 </r>
       <r>    -2.0267     0.0000     8.0000 </r>
       <r>    -1.9381     0.0000     8.0000 </r>
       <r>    -1.8495     0.0000     8.0000 </r>
       <r>    -1.7609     0.0000     8.0000 </r>
       <r>    -1.6723     0.0000     8.0000 </r>
       <r>    -1.5837     0.0000     8.0000 </r>
       <r>    -1.4951     0.0000     8.0000 </r>
       <r>    -1.4065     0.0000     8.0000 </r>
       <r>    -1.3179     0.0000     8.0000 </r>
       <r>    -1.2292     0.0000     8.0000 </r>
       <r>    -1.1406     0.0000     8.0000 </r>
       <r>    -1.0520     0.0000     8.0000 </r>
       <r>    -0.9634     0.0000     8.0000 </r>
       <r>    -0.8748     0.0000     8.0000 </r>
       <r>    -0.7862     0.0000     8.0000 </r>
       <r>    -0.6976     0.0000     8.0000 </r>
       <r>    -0.6090     0.0000     8.0000 </r>
       <r>    -0.5204     0.0000     8.0000 </r>
       <r>    -0.4318     0.0018     8.0002 </r>
       <r>    -0.3432     0.1234     8.0111 </r>
       <r>    -0.2546     0.1688     8.0261 </r>
       <r>    -0.1660     1.0421     8.1184 </r>
       <r>    -0.0774     1.5262     8.2536 </r>
       <r>     0.0112     3.8361     8.5935 </r>
       <r>     0.0998     9.2346     9.4118 </r>
       <r>     0.1884    15.9299    10.8232 </r>
       <r>     0.2771    20.9490    12.6795 </r>
       <r>     0.3657    17.9902    14.2735 </r>
       <r>     0.4543    10.6911    15.2208 </r>
       <r>     0.5429    11.5786    16.2467 </r>
       <r>     0.6315    10.9903    17.2205 </r>
       <r>     0.7201    19.2217    18.9237 </r>
       <r>     0.8087    19.4008    20.6427 </r>
       <r>     0.8973    25.0422    22.8616 </r>
       <r>     0.9859    18.6603    24.5150 </r>
       <r>     1.0745    13.1322    25.6786 </r>
       <r>     1.1631    18.6503    27.3311 </r>
       <r>     1.2517    20.1473    29.1163 </r>
       <r>     1.3403    24.6550    31.3009 </r>
       <r>     1.4289    30.3697    33.9918 </r>
       <r>     1.5175    30.2855    36.6753 </r>
       <r>     1.6061    31.0530    39.4268 </r>
       <r>     1.6947    30.8269    42.1582 </r>
       <r>     1.7834    32.2893    45.0192 </r>
       <r>     1.8720    29.8549    47.6645 </r>
       <r>     1.9606    32.5137    50.5455 </r>
       <r>     2.0492    33.9982    53.5579 </r>
       <r>     2.1378    30.2521    56.2384 </r>
       <r>     2.2264    31.0389    58.9886 </r>
       <r>     2.3150    32.7067    61.8866 </r>
       <r>     2.4036    27.3649    64.3113 </r>
       <r>     2.4922    25.8316    66.6002 </r>
       <r>     2.5808    29.0159    69.1711 </r>
       <r>     2.6694    33.7217    72.1591 </r>
       <r>     2.7580    30.7412    74.8829 </r>
       <r>     2.8466    33.7022    77.8692 </r>
       <r>     2.9352    39.2435    81.3464 </r>
       <r>     3.0238    41.8634    85.0557 </r>
       <r>     3.1124    29.2261    87.6453 </r>
       <r>     3.2010    18.1249    89.2513 </r>
       <r>     3.2897    15.5314    90.6275 </r>
       <r>     3.3783    12.0771    91.6976 </r>
       <r>     3.4669    10.2273    92.6038 </r>
       <r>     3.5555    13.8437    93.8304 </r>
       <r>     3.6441    10.6947    94.7780 </r>
       <r>     3.7327     7.9477    95.4822 </r>
       <r>     3.8213     5.5527    95.9742 </r>
       <r>     3.9099     6.3672    96.5384 </r>
       <r>     3.9985     5.3091    97.0088 </r>
       <r>     4.0871     7.3709    97.6619 </r>
       <r>     4.1757     8.5526    98.4197 </r>
       <r>     4.2643     8.7550    99.1955 </r>
       <r>     4.3529     5.9260    99.7205 </r>
       <r>     4.4415     5.6894   100.2247 </r>
       <r>     4.5301     7.3802   100.8786 </r>
       <r>     4.6187     7.8420   101.5734 </r>
       <r>     4.7073     9.3042   102.3979 </r>
       <r>     4.7960    12.5124   103.5065 </r>
       <r>     4.8846     6.8865   104.1167 </r>
       <r>     4.9732     4.4987   104.5153 </r>
       <r>     5.0618     5.0440   104.9622 </r>
       <r>     5.1504    10.1139   105.8584 </r>
       <r>     5.2390    10.2593   106.7674 </r>
       <r>     5.3276     5.1902   107.2273 </r>
       <r>     5.4162     5.5411   107.7183 </r>
       <r>     5.5048     5.5496   108.2100 </r>
       <r>     5.5934     6.3648   108.7740 </r>
       <r>     5.6820     9.1534   109.5850 </r>
       <r>     5.7706     9.8516   110.4579 </r>
       <r>     5.8592     5.4369   110.9397 </r>
       <r>     5.9478     5.2537   111.4052 </r>
       <r>     6.0364     2.7160   111.6458 </r>
       <r>     6.1250     1.5842   111.7862 </r>
       <r>     6.2136     1.7051   111.9373 </r>
       <r>     6.3023     1.0353   112.0290 </r>
       <r>     6.3909     0.1425   112.0416 </r>
       <r>     6.4795     0.0199   112.0434 </r>
       <r>     6.5681     0.1866   112.0599 </r>
       <r>     6.6567     0.2207   112.0795 </r>
       <r>     6.7453     1.6034   112.2216 </r>
       <r>     6.8339     2.0854   112.4063 </r>
       <r>     6.9225     0.7297   112.4710 </r>
       <r>     7.0111     0.6502   112.5286 </r>
       <r>     7.0997     0.4614   112.5695 </r>
       <r>     7.1883     1.7137   112.7213 </r>
       <r>     7.2769     2.1404   112.9110 </r>
       <r>     7.3655     2.2345   113.1090 </r>
       <r>     7.4541     2.7457   113.3523 </r>
       <r>     7.5427     4.8068   113.7782 </r>
       <r>     7.6313     5.0761   114.2279 </r>
       <r>     7.7199     2.7469   114.4713 </r>
       <r>     7.8086     5.7000   114.9764 </r>
       <r>     7.8972     6.0773   115.5149 </r>
       <r>     7.9858     6.4024   116.0822 </r>
       <r>     8.0744     4.3027   116.4634 </r>
       <r>     8.1630     2.0966   116.6492 </r>
       <r>     8.2516     0.8170   116.7216 </r>
       <r>     8.3402     1.1647   116.8248 </r>
       <r>     8.4288     4.2721   117.2033 </r>
       <r>     8.5174     2.0836   117.3879 </r>
       <r>     8.6060     6.6991   117.9815 </r>
       <r>     8.6946     8.4835   118.7332 </r>
       <r>     8.7832     4.7519   119.1542 </r>
       <r>     8.8718     3.3611   119.4521 </r>
       <r>     8.9604     3.5495   119.7666 </r>
       <r>     9.0490     2.6149   119.9983 </r>
       <r>     9.1376     1.6413   120.1437 </r>
       <r>     9.2262     0.8465   120.2187 </r>
       <r>     9.3149     3.4600   120.5253 </r>
       <r>     9.4035     4.3014   120.9064 </r>
       <r>     9.4921     4.3397   121.2909 </r>
       <r>     9.5807     3.3866   121.5910 </r>
       <r>     9.6693     4.2726   121.9696 </r>
       <r>     9.7579     4.0812   122.3312 </r>
       <r>     9.8465     4.6874   122.7465 </r>
       <r>     9.9351     5.6192   123.2444 </r>
       <r>    10.0237     6.9018   123.8560 </r>
       <r>    10.1123    10.1590   124.7561 </r>
       <r>    10.2009     3.5822   125.0735 </r>
       <r>    10.2895     2.9629   125.3360 </r>
       <r>    10.3781     4.0295   125.6931 </r>
       <r>    10.4667     7.0814   126.3205 </r>
       <r>    10.5553     9.0806   127.1251 </r>
       <r>    10.6439     9.0126   127.9237 </r>
       <r>    10.7325     6.8099   128.5271 </r>
       <r>    10.8211     8.3369   129.2658 </r>
       <r>    10.9098     7.6577   129.9443 </r>
       <r>    10.9984     5.0545   130.3922 </r>
       <r>    11.0870     3.0278   130.6604 </r>
       <r>    11.1756     4.9724   131.1010 </r>
       <r>    11.2642     3.6741   131.4266 </r>
       <r>    11.3528     6.6724   132.0178 </r>
       <r>    11.4414     4.0266   132.3746 </r>
       <r>    11.5300     6.7008   132.9683 </r>
       <r>    11.6186     6.4170   133.5369 </r>
       <r>    11.7072     3.9339   133.8855 </r>
       <r>    11.7958     1.4781   134.0164 </r>
       <r>    11.8844     4.7096   134.4337 </r>
       <r>    11.9730     4.5076   134.8331 </r>
       <r>    12.0616     2.7148   135.0737 </r>
       <r>    12.1502     4.8912   135.5071 </r>
       <r>    12.2388     6.4503   136.0786 </r>
       <r>    12.3274     5.3892   136.5561 </r>
       <r>    12.4161     4.7773   136.9794 </r>
       <r>    12.5047     4.3279   137.3629 </r>
       <r>    12.5933     4.8219   137.7901 </r>
       <r>    12.6819     5.6274   138.2888 </r>
       <r>    12.7705     7.1151   138.9192 </r>
       <r>    12.8591     3.4617   139.2259 </r>
       <r>    12.9477     3.5310   139.5388 </r>
       <r>    13.0363     4.9093   139.9738 </r>
       <r>    13.1249     3.1027   140.2487 </r>
       <r>    13.2135     6.1549   140.7941 </r>
       <r>    13.3021     2.8440   141.0460 </r>
       <r>    13.3907     6.3103   141.6052 </r>
       <r>    13.4793     8.3506   142.3451 </r>
       <r>    13.5679     6.0919   142.8849 </r>
       <r>    13.6565     5.4350   143.3664 </r>
       <r>    13.7451     3.2280   143.6525 </r>
       <r>    13.8337     6.7583   144.2513 </r>
       <r>    13.9224     7.2592   144.8945 </r>
       <r>    14.0110     5.7820   145.4068 </r>
       <r>    14.0996     4.7053   145.8237 </r>
       <r>    14.1882     3.2656   146.1131 </r>
       <r>    14.2768     6.6404   146.7015 </r>
       <r>    14.3654     9.0259   147.5012 </r>
       <r>    14.4540     9.5771   148.3498 </r>
       <r>    14.5426     5.8427   148.8675 </r>
       <r>    14.6312     6.7152   149.4625 </r>
       <r>    14.7198    10.2742   150.3729 </r>
       <r>    14.8084     6.5322   150.9516 </r>
       <r>    14.8970     7.2351   151.5927 </r>
       <r>    14.9856    11.3302   152.5966 </r>
       <r>    15.0742     5.0454   153.0437 </r>
       <r>    15.1628     4.5903   153.4504 </r>
       <r>    15.2514     5.9254   153.9754 </r>
       <r>    15.3400     6.5641   154.5571 </r>
       <r>    15.4287     4.2119   154.9303 </r>
       <r>    15.5173     6.1638   155.4764 </r>
       <r>    15.6059     9.4804   156.3164 </r>
       <r>    15.6945     3.6664   156.6413 </r>
       <r>    15.7831     3.1473   156.9202 </r>
       <r>    15.8717     6.5176   157.4977 </r>
       <r>    15.9603     6.2828   158.0544 </r>
       <r>    16.0489     7.3876   158.7089 </r>
       <r>    16.1375     2.9956   158.9744 </r>
       <r>    16.2261     2.2635   159.1749 </r>
       <r>    16.3147     2.4980   159.3963 </r>
       <r>    16.4033     3.6662   159.7211 </r>
       <r>    16.4919     1.3707   159.8426 </r>
       <r>    16.5805     0.5900   159.8948 </r>
       <r>    16.6691     0.7664   159.9627 </r>
       <r>    16.7577     0.3945   159.9977 </r>
       <r>    16.8463     0.0260   160.0000 </r>
       <r>    16.9350     0.0000   160.0000 </r>
       <r>    17.0236     0.0000   160.0000 </r>
       <r>    17.1122     0.0000   160.0000 </r>
       <r>    17.2008     0.0000   160.0000 </r>
       <r>    17.2894     0.0000   160.0000 </r>
       <r>    17.3780     0.0000   160.0000 </r>
       <r>    17.4666     0.0000   160.0000 </r>
       <r>    17.5552     0.0000   160.0000 </r>
       <r>    17.6438     0.0000   160.0000 </r>
       <r>    17.7324     0.0000   160.0000 </r>
       <r>    17.8210     0.0000   160.0000 </r>
       <r>    17.9096     0.0000   160.0000 </r>
      </set>
     </set>
    </array>
   </total>
  </dos>
 </calculation>
 <structure name="finalpos" >
  <crystal>
   <varray name="basis" >
    <v>       7.00519799       0.00069569       0.00000000 </v>
    <v>      -0.00075098       6.88345546       0.00000000 </v>
    <v>       0.00000000       0.00000000       4.85006462 </v>
   </varray>
   <i name="volume">    233.86996502 </i>
   <varray name="rec_basis" >
    <v>       0.14275114       0.00001557       0.00000000 </v>
    <v>      -0.00001443       0.14527587       0.00000000 </v>
    <v>       0.00000000       0.00000000       0.20618282 </v>
   </varray>
  </crystal>
  <varray name="positions" >
   <v>       0.85975796       0.34334154       0.99743204 </v>
   <v>       0.14024204       0.65665846       0.99743204 </v>
   <v>       0.64024105       0.84334734       0.16923224 </v>
   <v>       0.35975895       0.15665266       0.16923224 </v>
   <v>       0.35975552       0.65664738       0.49742567 </v>
   <v>       0.64024448       0.34335262       0.49742567 </v>
   <v>       0.85975312       0.84334989       0.66923999 </v>
   <v>       0.14024688       0.15665011       0.66923999 </v>
   <v>       0.00000000       0.00000000       0.16438095 </v>
   <v>       0.50000000       0.00000000       0.66435618 </v>
   <v>       0.00000000       0.50000000       0.50231306 </v>
   <v>       0.50000000       0.50000000       0.00228996 </v>
  </varray>
 </structure>
</modeling>
