 144 144   0   0
  0.1948916E+02  0.1401040E-08  0.1376691E-08  0.1455019E-08  0.5000000E-15
  1.000000000000000E-004
  CAR 
 unknown system                          
     13.06154934     -8.44130096  301      6.26444081      1.00000000
     -8.441  0.0000E+00  0.0000E+00
     -8.370  0.0000E+00  0.0000E+00
     -8.298  0.0000E+00  0.0000E+00
     -8.226  0.0000E+00  0.0000E+00
     -8.155  0.0000E+00  0.0000E+00
     -8.083  0.0000E+00  0.0000E+00
     -8.011  0.0000E+00  0.0000E+00
     -7.940  0.0000E+00  0.0000E+00
     -7.868  0.0000E+00  0.0000E+00
     -7.796  0.0000E+00  0.0000E+00
     -7.725  0.2931E-12  0.2101E-13
     -7.653  0.1579E-06  0.1132E-07
     -7.581  0.1585E-02  0.1136E-03
     -7.510  0.3517E+00  0.2532E-01
     -7.438  0.4313E+01  0.3345E+00
     -7.366  0.1911E+02  0.1704E+01
     -7.294  0.3786E+02  0.4418E+01
     -7.223  0.3949E+02  0.7249E+01
     -7.151  0.6437E+02  0.1186E+02
     -7.079  0.1004E+03  0.1906E+02
     -7.008  0.1265E+03  0.2813E+02
     -6.936  0.2083E+03  0.4306E+02
     -6.864  0.2226E+03  0.5902E+02
     -6.793  0.2575E+03  0.7747E+02
     -6.721  0.2070E+03  0.9231E+02
     -6.649  0.4930E+02  0.9584E+02
     -6.578  0.2204E+01  0.9600E+02
     -6.506  0.7877E-02  0.9600E+02
     -6.434  0.9827E-06  0.9600E+02
     -6.363  0.2871E-11  0.9600E+02
     -6.291  0.0000E+00  0.9600E+02
     -6.219  0.0000E+00  0.9600E+02
     -6.148  0.0000E+00  0.9600E+02
     -6.076  0.0000E+00  0.9600E+02
     -6.004  0.0000E+00  0.9600E+02
     -5.933  0.0000E+00  0.9600E+02
     -5.861  0.0000E+00  0.9600E+02
     -5.789  0.0000E+00  0.9600E+02
     -5.718  0.0000E+00  0.9600E+02
     -5.646  0.0000E+00  0.9600E+02
     -5.574  0.0000E+00  0.9600E+02
     -5.503  0.0000E+00  0.9600E+02
     -5.431  0.0000E+00  0.9600E+02
     -5.359  0.0000E+00  0.9600E+02
     -5.288  0.0000E+00  0.9600E+02
     -5.216  0.0000E+00  0.9600E+02
     -5.144  0.0000E+00  0.9600E+02
     -5.073  0.0000E+00  0.9600E+02
     -5.001  0.0000E+00  0.9600E+02
     -4.929  0.0000E+00  0.9600E+02
     -4.857  0.0000E+00  0.9600E+02
     -4.786  0.0000E+00  0.9600E+02
     -4.714  0.0000E+00  0.9600E+02
     -4.642  0.0000E+00  0.9600E+02
     -4.571  0.0000E+00  0.9600E+02
     -4.499  0.0000E+00  0.9600E+02
     -4.427  0.0000E+00  0.9600E+02
     -4.356  0.0000E+00  0.9600E+02
     -4.284  0.0000E+00  0.9600E+02
     -4.212  0.0000E+00  0.9600E+02
     -4.141  0.0000E+00  0.9600E+02
     -4.069  0.0000E+00  0.9600E+02
     -3.997  0.0000E+00  0.9600E+02
     -3.926  0.0000E+00  0.9600E+02
     -3.854  0.0000E+00  0.9600E+02
     -3.782  0.0000E+00  0.9600E+02
     -3.711  0.0000E+00  0.9600E+02
     -3.639  0.0000E+00  0.9600E+02
     -3.567  0.0000E+00  0.9600E+02
     -3.496  0.0000E+00  0.9600E+02
     -3.424  0.0000E+00  0.9600E+02
     -3.352  0.0000E+00  0.9600E+02
     -3.281  0.0000E+00  0.9600E+02
     -3.209  0.0000E+00  0.9600E+02
     -3.137  0.0000E+00  0.9600E+02
     -3.066  0.0000E+00  0.9600E+02
     -2.994  0.0000E+00  0.9600E+02
     -2.922  0.0000E+00  0.9600E+02
     -2.851  0.0000E+00  0.9600E+02
     -2.779  0.0000E+00  0.9600E+02
     -2.707  0.0000E+00  0.9600E+02
     -2.636  0.0000E+00  0.9600E+02
     -2.564  0.0000E+00  0.9600E+02
     -2.492  0.0000E+00  0.9600E+02
     -2.421  0.0000E+00  0.9600E+02
     -2.349  0.0000E+00  0.9600E+02
     -2.277  0.0000E+00  0.9600E+02
     -2.205  0.0000E+00  0.9600E+02
     -2.134  0.0000E+00  0.9600E+02
     -2.062  0.0000E+00  0.9600E+02
     -1.990  0.0000E+00  0.9600E+02
     -1.919  0.0000E+00  0.9600E+02
     -1.847  0.0000E+00  0.9600E+02
     -1.775  0.0000E+00  0.9600E+02
     -1.704  0.0000E+00  0.9600E+02
     -1.632  0.0000E+00  0.9600E+02
     -1.560  0.0000E+00  0.9600E+02
     -1.489  0.0000E+00  0.9600E+02
     -1.417  0.0000E+00  0.9600E+02
     -1.345  0.0000E+00  0.9600E+02
     -1.274  0.0000E+00  0.9600E+02
     -1.202  0.0000E+00  0.9600E+02
     -1.130  0.0000E+00  0.9600E+02
     -1.059  0.0000E+00  0.9600E+02
     -0.987  0.0000E+00  0.9600E+02
     -0.915  0.0000E+00  0.9600E+02
     -0.844  0.0000E+00  0.9600E+02
     -0.772  0.0000E+00  0.9600E+02
     -0.700  0.0000E+00  0.9600E+02
     -0.629  0.2323E-14  0.9600E+02
     -0.557  0.4366E-08  0.9600E+02
     -0.485  0.1457E-03  0.9600E+02
     -0.414  0.9851E-01  0.9601E+02
     -0.342  0.1813E+01  0.9614E+02
     -0.270  0.1852E+01  0.9627E+02
     -0.199  0.8628E+01  0.9689E+02
     -0.127  0.1536E+02  0.9799E+02
     -0.055  0.2465E+02  0.9976E+02
      0.016  0.5196E+02  0.1035E+03
      0.088  0.1044E+03  0.1110E+03
      0.160  0.1894E+03  0.1245E+03
      0.232  0.2072E+03  0.1394E+03
      0.303  0.2739E+03  0.1590E+03
      0.375  0.1913E+03  0.1727E+03
      0.447  0.1243E+03  0.1816E+03
      0.518  0.1411E+03  0.1918E+03
      0.590  0.1237E+03  0.2006E+03
      0.662  0.1689E+03  0.2127E+03
      0.733  0.2458E+03  0.2304E+03
      0.805  0.2292E+03  0.2468E+03
      0.877  0.2935E+03  0.2678E+03
      0.948  0.2822E+03  0.2880E+03
      1.020  0.1445E+03  0.2984E+03
      1.092  0.1861E+03  0.3117E+03
      1.163  0.2272E+03  0.3280E+03
      1.235  0.2307E+03  0.3446E+03
      1.307  0.2984E+03  0.3659E+03
      1.378  0.3087E+03  0.3881E+03
      1.450  0.3921E+03  0.4162E+03
      1.522  0.3546E+03  0.4416E+03
      1.593  0.3733E+03  0.4684E+03
      1.665  0.3651E+03  0.4945E+03
      1.737  0.3923E+03  0.5226E+03
      1.808  0.3714E+03  0.5493E+03
      1.880  0.3585E+03  0.5750E+03
      1.952  0.3902E+03  0.6029E+03
      2.023  0.4145E+03  0.6326E+03
      2.095  0.3770E+03  0.6597E+03
      2.167  0.3617E+03  0.6856E+03
      2.238  0.3755E+03  0.7125E+03
      2.310  0.3962E+03  0.7409E+03
      2.382  0.3367E+03  0.7650E+03
      2.453  0.2959E+03  0.7862E+03
      2.525  0.3404E+03  0.8106E+03
      2.597  0.3568E+03  0.8362E+03
      2.669  0.4091E+03  0.8655E+03
      2.740  0.3723E+03  0.8922E+03
      2.812  0.3821E+03  0.9196E+03
      2.884  0.4334E+03  0.9507E+03
      2.955  0.5018E+03  0.9866E+03
      3.027  0.4936E+03  0.1022E+04
      3.099  0.3630E+03  0.1048E+04
      3.170  0.2307E+03  0.1065E+04
      3.242  0.2045E+03  0.1079E+04
      3.314  0.1694E+03  0.1091E+04
      3.385  0.1361E+03  0.1101E+04
      3.457  0.1209E+03  0.1110E+04
      3.529  0.1589E+03  0.1121E+04
      3.600  0.1611E+03  0.1133E+04
      3.672  0.9956E+02  0.1140E+04
      3.744  0.9669E+02  0.1147E+04
      3.815  0.6354E+02  0.1151E+04
      3.887  0.7352E+02  0.1157E+04
      3.959  0.7226E+02  0.1162E+04
      4.030  0.6669E+02  0.1167E+04
      4.102  0.9190E+02  0.1173E+04
      4.174  0.1060E+03  0.1181E+04
      4.245  0.1120E+03  0.1189E+04
      4.317  0.7419E+02  0.1194E+04
      4.389  0.7314E+02  0.1199E+04
      4.460  0.6566E+02  0.1204E+04
      4.532  0.9312E+02  0.1211E+04
      4.604  0.9318E+02  0.1217E+04
      4.675  0.1032E+03  0.1225E+04
      4.747  0.1422E+03  0.1235E+04
      4.819  0.1352E+03  0.1245E+04
      4.890  0.6978E+02  0.1250E+04
      4.962  0.5392E+02  0.1254E+04
      5.034  0.5529E+02  0.1258E+04
      5.105  0.9004E+02  0.1264E+04
      5.177  0.1456E+03  0.1274E+04
      5.249  0.1049E+03  0.1282E+04
      5.321  0.6201E+02  0.1286E+04
      5.392  0.6101E+02  0.1291E+04
      5.464  0.6826E+02  0.1296E+04
      5.536  0.7328E+02  0.1301E+04
      5.607  0.7688E+02  0.1306E+04
      5.679  0.1138E+03  0.1315E+04
      5.751  0.1294E+03  0.1324E+04
      5.822  0.7111E+02  0.1329E+04
      5.894  0.6465E+02  0.1334E+04
      5.966  0.5703E+02  0.1338E+04
      6.037  0.2949E+02  0.1340E+04
      6.109  0.1866E+02  0.1341E+04
      6.181  0.2162E+02  0.1343E+04
      6.252  0.1654E+02  0.1344E+04
      6.324  0.8385E+01  0.1344E+04
      6.396  0.7814E+00  0.1344E+04
      6.467  0.1489E+00  0.1345E+04
      6.539  0.2008E+01  0.1345E+04
      6.611  0.1726E+01  0.1345E+04
      6.682  0.5985E+01  0.1345E+04
      6.754  0.2389E+02  0.1347E+04
      6.826  0.2538E+02  0.1349E+04
      6.897  0.1053E+02  0.1349E+04
      6.969  0.6348E+01  0.1350E+04
      7.041  0.8901E+01  0.1351E+04
      7.112  0.4841E+01  0.1351E+04
      7.184  0.2253E+02  0.1353E+04
      7.256  0.2412E+02  0.1354E+04
      7.327  0.2767E+02  0.1356E+04
      7.399  0.3233E+02  0.1359E+04
      7.471  0.2999E+02  0.1361E+04
      7.542  0.6403E+02  0.1365E+04
      7.614  0.6837E+02  0.1370E+04
      7.686  0.2637E+02  0.1372E+04
      7.758  0.5711E+02  0.1376E+04
      7.829  0.6980E+02  0.1381E+04
      7.901  0.7304E+02  0.1386E+04
      7.973  0.7630E+02  0.1392E+04
      8.044  0.6348E+02  0.1396E+04
      8.116  0.3351E+02  0.1399E+04
      8.188  0.1776E+02  0.1400E+04
      8.259  0.7822E+01  0.1401E+04
      8.331  0.1204E+02  0.1402E+04
      8.403  0.5220E+02  0.1405E+04
      8.474  0.3207E+02  0.1408E+04
      8.546  0.3495E+02  0.1410E+04
      8.618  0.9875E+02  0.1417E+04
      8.689  0.1013E+03  0.1424E+04
      8.761  0.5772E+02  0.1429E+04
      8.833  0.5004E+02  0.1432E+04
      8.904  0.3365E+02  0.1435E+04
      8.976  0.4586E+02  0.1438E+04
      9.048  0.2910E+02  0.1440E+04
      9.119  0.2171E+02  0.1442E+04
      9.191  0.9934E+01  0.1442E+04
      9.263  0.1844E+02  0.1444E+04
      9.334  0.5522E+02  0.1447E+04
      9.406  0.4902E+02  0.1451E+04
      9.478  0.5404E+02  0.1455E+04
      9.549  0.3773E+02  0.1458E+04
      9.621  0.5160E+02  0.1461E+04
      9.693  0.5027E+02  0.1465E+04
      9.764  0.4700E+02  0.1468E+04
      9.836  0.5450E+02  0.1472E+04
      9.908  0.7538E+02  0.1478E+04
      9.979  0.5743E+02  0.1482E+04
     10.051  0.1116E+03  0.1490E+04
     10.123  0.1155E+03  0.1498E+04
     10.195  0.3879E+02  0.1501E+04
     10.266  0.3006E+02  0.1503E+04
     10.338  0.4889E+02  0.1506E+04
     10.410  0.5925E+02  0.1511E+04
     10.481  0.9081E+02  0.1517E+04
     10.553  0.1122E+03  0.1525E+04
     10.625  0.1103E+03  0.1533E+04
     10.696  0.9215E+02  0.1540E+04
     10.768  0.8011E+02  0.1545E+04
     10.840  0.1082E+03  0.1553E+04
     10.911  0.8690E+02  0.1559E+04
     10.983  0.6383E+02  0.1564E+04
     11.055  0.3339E+02  0.1566E+04
     11.126  0.5804E+02  0.1571E+04
     11.198  0.4962E+02  0.1574E+04
     11.270  0.4692E+02  0.1577E+04
     11.341  0.8351E+02  0.1583E+04
     11.413  0.5137E+02  0.1587E+04
     11.485  0.5744E+02  0.1591E+04
     11.556  0.8892E+02  0.1598E+04
     11.628  0.6622E+02  0.1602E+04
     11.700  0.4365E+02  0.1606E+04
     11.771  0.1093E+02  0.1606E+04
     11.843  0.1580E+02  0.1607E+04
     11.915  0.3683E+02  0.1610E+04
     11.986  0.1910E+02  0.1611E+04
     12.058  0.2829E+01  0.1612E+04
     12.130  0.4439E+01  0.1612E+04
     12.201  0.5191E+00  0.1612E+04
     12.273  0.2018E-02  0.1612E+04
     12.345  0.1800E-06  0.1612E+04
     12.416  0.3137E-12  0.1612E+04
     12.488  0.0000E+00  0.1612E+04
     12.560  0.0000E+00  0.1612E+04
     12.631  0.0000E+00  0.1612E+04
     12.703  0.0000E+00  0.1612E+04
     12.775  0.0000E+00  0.1612E+04
     12.847  0.0000E+00  0.1612E+04
     12.918  0.0000E+00  0.1612E+04
     12.990  0.0000E+00  0.1612E+04
     13.062  0.0000E+00  0.1612E+04
