<?xml version="1.0" encoding="ISO-8859-1"?>
<modeling>
 <generator>
  <i name="program" type="string">vasp </i>
  <i name="version" type="string">5.4.4.18Apr17-6-g9f103f2a35  </i>
  <i name="subversion" type="string">(build Jul 30 2020 14:31:59) complex            parallel </i>
  <i name="platform" type="string">LinuxIFC </i>
  <i name="date" type="string">2021 02 04 </i>
  <i name="time" type="string">08:53:26 </i>
 </generator>
 <incar>
  <i type="string" name="PREC">accurate</i>
  <i type="string" name="ALGO"> normal</i>
  <i type="logical" name="ADDGRID"> T  </i>
  <i type="int" name="ISPIN">     1</i>
  <i type="int" name="NELM">   200</i>
  <i type="int" name="NELMIN">     8</i>
  <i name="EDIFF">      0.00000001</i>
  <i type="int" name="ISIF">     3</i>
  <i type="int" name="ISYM">     0</i>
  <i name="ENCUT">    650.00000000</i>
  <i type="logical" name="LREAL"> F  </i>
  <i type="int" name="ISMEAR">     0</i>
  <i name="SIGMA">      0.05000000</i>
  <i type="logical" name="LWAVE"> F  </i>
  <i type="logical" name="LASPH"> T  </i>
  <v type="int" name="KPOINT_BSE">    -1     0     0     0</v>
  <i type="int" name="NELM">   200</i>
  <i type="string" name="GGA"> ps</i>
  <i type="logical" name="LASPH"> T  </i>
 </incar>
 <structure name="primitive_cell" >
  <crystal>
   <varray name="basis" >
    <v>      14.01039598       0.00139138       0.00000000 </v>
    <v>      -0.00150196      13.76691092       0.00000000 </v>
    <v>       0.00000000       0.00000000      14.55019386 </v>
   </varray>
   <i name="volume">   2806.43958022 </i>
   <varray name="rec_basis" >
    <v>       0.07137557       0.00000779       0.00000000 </v>
    <v>      -0.00000721       0.07263794       0.00000000 </v>
    <v>       0.00000000       0.00000000       0.06872761 </v>
   </varray>
  </crystal>
  <varray name="positions" >
   <v>       0.42987898       0.17167077       0.33247735 </v>
   <v>      -0.50000000       0.00000000       0.38812698 </v>
   <v>       0.25000000       0.25000000       0.33409665 </v>
   <v>      -0.50000000       0.25000000       0.16743769 </v>
   <v>      -0.42987656       0.07832506       0.22308000 </v>
   <v>      -0.50000000       0.25000000      -0.49922898 </v>
   <v>       0.32012224       0.17167631       0.49914189 </v>
   <v>       0.32012224       0.17167631       0.16580856 </v>
   <v>      -0.42987898       0.32832923       0.33247735 </v>
   <v>       0.42987656      -0.07832506       0.22308000 </v>
   <v>       0.42987656       0.42167494       0.22308000 </v>
   <v>       0.25000000       0.00000000       0.22145206 </v>
   <v>       0.17987948       0.07832633       0.38974408 </v>
   <v>      -0.32012052       0.07832633       0.38974408 </v>
   <v>       0.32012052      -0.07832633       0.38974408 </v>
   <v>       0.32012052       0.42167367       0.38974408 </v>
   <v>      -0.42987656       0.07832506      -0.44358667 </v>
   <v>      -0.25000000       0.25000000       0.33409665 </v>
   <v>      -0.50000000      -0.50000000       0.38812698 </v>
   <v>       0.25000000       0.00000000      -0.44521461 </v>
   <v>       0.42987656      -0.07832506      -0.44358667 </v>
   <v>       0.42987656       0.42167494      -0.44358667 </v>
   <v>      -0.32012224       0.32832369       0.49914189 </v>
   <v>      -0.32012224       0.32832369       0.16580856 </v>
   <v>       0.17987776       0.32832369       0.49914189 </v>
   <v>       0.17987776       0.32832369       0.16580856 </v>
   <v>      -0.50000000       0.00000000       0.05479365 </v>
   <v>       0.42987898       0.17167077      -0.33418932 </v>
   <v>       0.42987898       0.17167077      -0.00085599 </v>
   <v>      -0.42987898      -0.17167077       0.33247735 </v>
   <v>      -0.25000000       0.00000000       0.22145206 </v>
   <v>       0.25000000      -0.50000000       0.22145206 </v>
   <v>       0.07012344       0.07832506       0.22308000 </v>
   <v>       0.17987948       0.07832633       0.05641075 </v>
   <v>      -0.32012052       0.07832633       0.05641075 </v>
   <v>       0.07012102       0.32832923       0.33247735 </v>
   <v>       0.32012052       0.42094729       0.05641075 </v>
   <v>       0.32012052      -0.07832633       0.05641075 </v>
   <v>       0.25000000       0.25000000       0.00076332 </v>
   <v>       0.25000000       0.25000000      -0.33257001 </v>
   <v>      -0.42987898       0.32832923      -0.33418932 </v>
   <v>      -0.42987898       0.32832923      -0.00085599 </v>
   <v>      -0.17987776       0.17167631       0.49914189 </v>
   <v>      -0.17987776       0.17167631       0.16580856 </v>
   <v>      -0.25000000       0.00000000      -0.44521461 </v>
   <v>       0.25000000      -0.50000000      -0.44521461 </v>
   <v>       0.07012344       0.07832506      -0.44358667 </v>
   <v>      -0.50000000      -0.50000000       0.05479365 </v>
   <v>      -0.42987656      -0.42167494       0.22308000 </v>
   <v>      -0.50000000       0.00000000      -0.27853968 </v>
   <v>       0.25000000      -0.25000000       0.33409665 </v>
   <v>      -0.50000000      -0.25000000       0.16743769 </v>
   <v>       0.17987776      -0.17167631       0.49914189 </v>
   <v>       0.17987776      -0.17167631       0.16580856 </v>
   <v>      -0.32012224      -0.17167631       0.49914189 </v>
   <v>      -0.32012224      -0.17167631       0.16580856 </v>
   <v>      -0.50000000      -0.25000000      -0.49922898 </v>
   <v>      -0.17987948       0.42167367       0.38974408 </v>
   <v>      -0.17987948      -0.07832633       0.38974408 </v>
   <v>       0.00000000       0.00000000       0.38812698 </v>
   <v>      -0.25000000      -0.50000000       0.22145206 </v>
   <v>       0.00000000       0.25000000       0.16743769 </v>
   <v>       0.00000000       0.25000000      -0.49922898 </v>
   <v>      -0.32012052      -0.42167367       0.38974408 </v>
   <v>       0.17987948      -0.42167367       0.38974408 </v>
   <v>      -0.25000000       0.25000000       0.00076332 </v>
   <v>      -0.25000000       0.25000000      -0.33257001 </v>
   <v>      -0.42987656      -0.42167494      -0.44358667 </v>
   <v>       0.17987948       0.07832633      -0.27692259 </v>
   <v>      -0.32012052       0.07832633      -0.27692259 </v>
   <v>       0.32012052      -0.07832633      -0.27692259 </v>
   <v>       0.32012052       0.42167367      -0.27692259 </v>
   <v>      -0.42987656       0.07832506      -0.11025334 </v>
   <v>       0.42987898      -0.32832923       0.33247735 </v>
   <v>       0.07012102      -0.17167077       0.33247735 </v>
   <v>      -0.07012102       0.17167077       0.33247735 </v>
   <v>      -0.42987898      -0.17167077      -0.33418932 </v>
   <v>      -0.42987898      -0.17167077      -0.00085599 </v>
   <v>      -0.25000000      -0.50000000      -0.44521461 </v>
   <v>       0.42987656      -0.07832506      -0.11025334 </v>
   <v>       0.42987656       0.42167494      -0.11025334 </v>
   <v>      -0.50000000      -0.50000000      -0.27853968 </v>
   <v>       0.07012102       0.32832923      -0.33418932 </v>
   <v>       0.07012102       0.32832923      -0.00085599 </v>
   <v>       0.25000000       0.00000000      -0.11188127 </v>
   <v>      -0.25000000      -0.25000000       0.33409665 </v>
   <v>      -0.50000000       0.25000000      -0.16589565 </v>
   <v>       0.32012224       0.17167631      -0.16752478 </v>
   <v>       0.32012224      -0.32832369       0.49914189 </v>
   <v>       0.32012224      -0.32832369       0.16580856 </v>
   <v>       0.00000000      -0.50000000       0.38812698 </v>
   <v>      -0.17987948       0.42167367       0.05641075 </v>
   <v>      -0.17987948      -0.07832633       0.05641075 </v>
   <v>       0.00000000       0.00000000       0.05479365 </v>
   <v>       0.07012344      -0.42167494       0.22308000 </v>
   <v>      -0.32012052      -0.42167367       0.05641075 </v>
   <v>       0.17987948      -0.42167367       0.05641075 </v>
   <v>       0.25000000      -0.25000000       0.00076332 </v>
   <v>      -0.07012344       0.42167494       0.22308000 </v>
   <v>      -0.07012344      -0.07832506       0.22308000 </v>
   <v>       0.25000000      -0.25000000      -0.33257001 </v>
   <v>       0.07012344      -0.42167494      -0.44358667 </v>
   <v>      -0.25000000       0.00000000      -0.11188127 </v>
   <v>       0.07012344       0.07832506      -0.11025334 </v>
   <v>       0.25000000      -0.50000000      -0.11188127 </v>
   <v>      -0.32012224       0.32832369      -0.16752478 </v>
   <v>       0.17987776       0.32832369      -0.16752478 </v>
   <v>       0.42987898      -0.32832923      -0.33418932 </v>
   <v>       0.42987898      -0.32832923      -0.00085599 </v>
   <v>       0.07012102      -0.17167077      -0.33418932 </v>
   <v>       0.07012102      -0.17167077      -0.00085599 </v>
   <v>      -0.07012344       0.42167494      -0.44358667 </v>
   <v>      -0.07012344      -0.07832506      -0.44358667 </v>
   <v>      -0.07012102       0.17167077      -0.33418932 </v>
   <v>      -0.07012102       0.17167077      -0.00085599 </v>
   <v>       0.00000000      -0.50000000       0.05479365 </v>
   <v>       0.00000000       0.00000000      -0.27853968 </v>
   <v>      -0.17987948       0.42167367      -0.27692259 </v>
   <v>      -0.17987948      -0.07832633      -0.27692259 </v>
   <v>       0.00000000      -0.25000000       0.16743769 </v>
   <v>      -0.32012052      -0.42167367      -0.27692259 </v>
   <v>       0.17987948      -0.42167367      -0.27692259 </v>
   <v>       0.00000000      -0.25000000      -0.49922898 </v>
   <v>      -0.42987656      -0.42167494      -0.11025334 </v>
   <v>      -0.25000000      -0.25000000       0.00076332 </v>
   <v>      -0.25000000      -0.25000000      -0.33257001 </v>
   <v>      -0.25000000      -0.50000000      -0.11188127 </v>
   <v>      -0.17987776       0.17167631      -0.16752478 </v>
   <v>      -0.17987776      -0.32832369       0.49914189 </v>
   <v>      -0.17987776      -0.32832369       0.16580856 </v>
   <v>      -0.50000000      -0.25000000      -0.16589565 </v>
   <v>       0.17987776      -0.17167631      -0.16752478 </v>
   <v>      -0.32012224      -0.17167631      -0.16752478 </v>
   <v>       0.00000000      -0.50000000      -0.27853968 </v>
   <v>       0.00000000       0.25000000      -0.16589565 </v>
   <v>      -0.07012102      -0.32832923       0.33247735 </v>
   <v>       0.07012344      -0.42167494      -0.11025334 </v>
   <v>      -0.07012344       0.42167494      -0.11025334 </v>
   <v>      -0.07012344      -0.07832506      -0.11025334 </v>
   <v>       0.32012224      -0.32832369      -0.16752478 </v>
   <v>      -0.07012102      -0.32832923      -0.33418932 </v>
   <v>      -0.07012102      -0.32832923      -0.00085599 </v>
   <v>       0.00000000      -0.25000000      -0.16589565 </v>
   <v>      -0.17987776      -0.32832369      -0.16752478 </v>
  </varray>
 </structure>
 <varray name="primitive_index" >
  <v type="int" >        1 </v>
  <v type="int" >      102 </v>
  <v type="int" >      137 </v>
  <v type="int" >      122 </v>
  <v type="int" >       86 </v>
  <v type="int" >      126 </v>
  <v type="int" >       65 </v>
  <v type="int" >       61 </v>
  <v type="int" >       14 </v>
  <v type="int" >       75 </v>
  <v type="int" >       73 </v>
  <v type="int" >      109 </v>
  <v type="int" >       41 </v>
  <v type="int" >       42 </v>
  <v type="int" >       31 </v>
  <v type="int" >       29 </v>
  <v type="int" >       90 </v>
  <v type="int" >      138 </v>
  <v type="int" >      104 </v>
  <v type="int" >      113 </v>
  <v type="int" >       79 </v>
  <v type="int" >       77 </v>
  <v type="int" >       54 </v>
  <v type="int" >       50 </v>
  <v type="int" >       53 </v>
  <v type="int" >       49 </v>
  <v type="int" >       98 </v>
  <v type="int" >        5 </v>
  <v type="int" >        9 </v>
  <v type="int" >       16 </v>
  <v type="int" >      110 </v>
  <v type="int" >      111 </v>
  <v type="int" >       85 </v>
  <v type="int" >       37 </v>
  <v type="int" >       38 </v>
  <v type="int" >       13 </v>
  <v type="int" >       25 </v>
  <v type="int" >       27 </v>
  <v type="int" >      133 </v>
  <v type="int" >      141 </v>
  <v type="int" >       18 </v>
  <v type="int" >       22 </v>
  <v type="int" >       66 </v>
  <v type="int" >       62 </v>
  <v type="int" >      114 </v>
  <v type="int" >      115 </v>
  <v type="int" >       89 </v>
  <v type="int" >      100 </v>
  <v type="int" >       88 </v>
  <v type="int" >      106 </v>
  <v type="int" >      139 </v>
  <v type="int" >      124 </v>
  <v type="int" >       55 </v>
  <v type="int" >       51 </v>
  <v type="int" >       56 </v>
  <v type="int" >       52 </v>
  <v type="int" >      128 </v>
  <v type="int" >       30 </v>
  <v type="int" >       32 </v>
  <v type="int" >      101 </v>
  <v type="int" >      112 </v>
  <v type="int" >      121 </v>
  <v type="int" >      125 </v>
  <v type="int" >       44 </v>
  <v type="int" >       43 </v>
  <v type="int" >      134 </v>
  <v type="int" >      142 </v>
  <v type="int" >       92 </v>
  <v type="int" >       45 </v>
  <v type="int" >       46 </v>
  <v type="int" >       35 </v>
  <v type="int" >       33 </v>
  <v type="int" >       94 </v>
  <v type="int" >        3 </v>
  <v type="int" >       15 </v>
  <v type="int" >        2 </v>
  <v type="int" >       20 </v>
  <v type="int" >       24 </v>
  <v type="int" >      116 </v>
  <v type="int" >       83 </v>
  <v type="int" >       81 </v>
  <v type="int" >      108 </v>
  <v type="int" >       17 </v>
  <v type="int" >       21 </v>
  <v type="int" >      117 </v>
  <v type="int" >      140 </v>
  <v type="int" >      130 </v>
  <v type="int" >       69 </v>
  <v type="int" >       67 </v>
  <v type="int" >       63 </v>
  <v type="int" >      103 </v>
  <v type="int" >       26 </v>
  <v type="int" >       28 </v>
  <v type="int" >       97 </v>
  <v type="int" >       87 </v>
  <v type="int" >       40 </v>
  <v type="int" >       39 </v>
  <v type="int" >      135 </v>
  <v type="int" >       74 </v>
  <v type="int" >       76 </v>
  <v type="int" >      143 </v>
  <v type="int" >       91 </v>
  <v type="int" >      118 </v>
  <v type="int" >       93 </v>
  <v type="int" >      119 </v>
  <v type="int" >       58 </v>
  <v type="int" >       57 </v>
  <v type="int" >        7 </v>
  <v type="int" >       11 </v>
  <v type="int" >       19 </v>
  <v type="int" >       23 </v>
  <v type="int" >       78 </v>
  <v type="int" >       80 </v>
  <v type="int" >        6 </v>
  <v type="int" >       10 </v>
  <v type="int" >       99 </v>
  <v type="int" >      105 </v>
  <v type="int" >       34 </v>
  <v type="int" >       36 </v>
  <v type="int" >      123 </v>
  <v type="int" >       48 </v>
  <v type="int" >       47 </v>
  <v type="int" >      127 </v>
  <v type="int" >       96 </v>
  <v type="int" >      136 </v>
  <v type="int" >      144 </v>
  <v type="int" >      120 </v>
  <v type="int" >       70 </v>
  <v type="int" >       68 </v>
  <v type="int" >       64 </v>
  <v type="int" >      132 </v>
  <v type="int" >       59 </v>
  <v type="int" >       60 </v>
  <v type="int" >      107 </v>
  <v type="int" >      129 </v>
  <v type="int" >        4 </v>
  <v type="int" >       95 </v>
  <v type="int" >       82 </v>
  <v type="int" >       84 </v>
  <v type="int" >       71 </v>
  <v type="int" >        8 </v>
  <v type="int" >       12 </v>
  <v type="int" >      131 </v>
  <v type="int" >       72 </v>
 </varray>
 <kpoints>
  <generation param="Gamma">
   <v type="int" name="divisions">       2        2        2 </v>
   <v name="usershift">      0.00000000       0.00000000       0.00000000 </v>
   <v name="genvec1">      0.50000000       0.00000000       0.00000000 </v>
   <v name="genvec2">      0.00000000       0.50000000       0.00000000 </v>
   <v name="genvec3">      0.00000000       0.00000000       0.50000000 </v>
   <v name="shift">      0.00000000       0.00000000       0.00000000 </v>
  </generation>
  <varray name="kpointlist" >
   <v>       0.00000000       0.00000000       0.00000000 </v>
   <v>       0.50000000      -0.00000000       0.00000000 </v>
   <v>       0.00000000       0.50000000       0.00000000 </v>
   <v>       0.50000000       0.50000000       0.00000000 </v>
   <v>       0.00000000       0.00000000       0.50000000 </v>
   <v>       0.50000000      -0.00000000       0.50000000 </v>
   <v>       0.00000000       0.50000000       0.50000000 </v>
   <v>       0.50000000       0.50000000       0.50000000 </v>
  </varray>
  <varray name="weights" >
   <v>       0.12500000 </v>
   <v>       0.12500000 </v>
   <v>       0.12500000 </v>
   <v>       0.12500000 </v>
   <v>       0.12500000 </v>
   <v>       0.12500000 </v>
   <v>       0.12500000 </v>
   <v>       0.12500000 </v>
  </varray>
 </kpoints>
 <parameters>
  <separator name="general" >
   <i type="string" name="SYSTEM">unknown system</i>
   <i type="logical" name="LCOMPAT"> F  </i>
  </separator>
  <separator name="electronic" >
   <i type="string" name="PREC">accura</i>
   <i name="ENMAX">    650.00000000</i>
   <i name="ENAUG">    446.84200000</i>
   <i name="EDIFF">      0.00000001</i>
   <i type="int" name="IALGO">    38</i>
   <i type="int" name="IWAVPR">    10</i>
   <i type="int" name="NBANDS">   806</i>
   <i name="NELECT">   1344.00000000</i>
   <i type="int" name="TURBO">     0</i>
   <i type="int" name="IRESTART">     0</i>
   <i type="int" name="NREBOOT">     0</i>
   <i type="int" name="NMIN">     0</i>
   <i name="EREF">      0.00000000</i>
   <separator name="electronic smearing" >
    <i type="int" name="ISMEAR">     0</i>
    <i name="SIGMA">      0.05000000</i>
    <i name="KSPACING">      0.50000000</i>
    <i type="logical" name="KGAMMA"> T  </i>
   </separator>
   <separator name="electronic projectors" >
    <i type="logical" name="LREAL"> F  </i>
    <v name="ROPT">      0.00000000      0.00000000</v>
    <i type="int" name="LMAXPAW">  -100</i>
    <i type="int" name="LMAXMIX">     2</i>
    <i type="logical" name="NLSPLINE"> F  </i>
   </separator>
   <separator name="electronic startup" >
    <i type="int" name="ISTART">     0</i>
    <i type="int" name="ICHARG">     2</i>
    <i type="int" name="INIWAV">     1</i>
   </separator>
   <separator name="electronic spin" >
    <i type="int" name="ISPIN">     1</i>
    <i type="logical" name="LNONCOLLINEAR"> F  </i>
    <v name="MAGMOM">      1.00000000      1.00000000      1.00000000      1.00000000      1.00000000      1.00000000      1.00000000      1.00000000      1.00000000      1.00000000      1.00000000      1.00000000      1.00000000      1.00000000      1.00000000      1.00000000      1.00000000      1.00000000      1.00000000      1.00000000
      1.00000000      1.00000000      1.00000000      1.00000000      1.00000000      1.00000000      1.00000000      1.00000000      1.00000000      1.00000000      1.00000000      1.00000000      1.00000000      1.00000000      1.00000000      1.00000000      1.00000000      1.00000000      1.00000000      1.00000000
      1.00000000      1.00000000      1.00000000      1.00000000      1.00000000      1.00000000      1.00000000      1.00000000      1.00000000      1.00000000      1.00000000      1.00000000      1.00000000      1.00000000      1.00000000      1.00000000      1.00000000      1.00000000      1.00000000      1.00000000
      1.00000000      1.00000000      1.00000000      1.00000000      1.00000000      1.00000000      1.00000000      1.00000000      1.00000000      1.00000000      1.00000000      1.00000000      1.00000000      1.00000000      1.00000000      1.00000000      1.00000000      1.00000000      1.00000000      1.00000000
      1.00000000      1.00000000      1.00000000      1.00000000      1.00000000      1.00000000      1.00000000      1.00000000      1.00000000      1.00000000      1.00000000      1.00000000      1.00000000      1.00000000      1.00000000      1.00000000      1.00000000      1.00000000      1.00000000      1.00000000
      1.00000000      1.00000000      1.00000000      1.00000000      1.00000000      1.00000000      1.00000000      1.00000000      1.00000000      1.00000000      1.00000000      1.00000000      1.00000000      1.00000000      1.00000000      1.00000000      1.00000000      1.00000000      1.00000000      1.00000000
      1.00000000      1.00000000      1.00000000      1.00000000      1.00000000      1.00000000      1.00000000      1.00000000      1.00000000      1.00000000      1.00000000      1.00000000      1.00000000      1.00000000      1.00000000      1.00000000      1.00000000      1.00000000      1.00000000      1.00000000
      1.00000000      1.00000000      1.00000000      1.00000000</v>
    <i name="NUPDOWN">     -1.00000000</i>
    <i type="logical" name="LSORBIT"> F  </i>
    <v name="SAXIS">      0.00000000      0.00000000      1.00000000</v>
    <i type="logical" name="LSPIRAL"> F  </i>
    <v name="QSPIRAL">      0.00000000      0.00000000      0.00000000</v>
    <i type="logical" name="LZEROZ"> F  </i>
   </separator>
   <separator name="electronic exchange-correlation" >
    <i type="logical" name="LASPH"> T  </i>
    <i type="logical" name="LMETAGGA"> F  </i>
   </separator>
   <separator name="electronic convergence" >
    <i type="int" name="NELM">   200</i>
    <i type="int" name="NELMDL">    -5</i>
    <i type="int" name="NELMIN">     8</i>
    <i name="ENINI">    650.00000000</i>
    <separator name="electronic convergence detail" >
     <i type="logical" name="LDIAG"> T  </i>
     <i type="logical" name="LSUBROT"> F  </i>
     <i name="WEIMIN">      0.00000000</i>
     <i name="EBREAK">      0.00000000</i>
     <i name="DEPER">      0.30000000</i>
     <i type="int" name="NRMM">     4</i>
     <i name="TIME">      0.40000000</i>
    </separator>
   </separator>
   <separator name="electronic mixer" >
    <i name="AMIX">      0.40000000</i>
    <i name="BMIX">      1.00000000</i>
    <i name="AMIN">      0.10000000</i>
    <i name="AMIX_MAG">      1.60000000</i>
    <i name="BMIX_MAG">      1.00000000</i>
    <separator name="electronic mixer details" >
     <i type="int" name="IMIX">     4</i>
     <i type="logical" name="MIXFIRST"> F  </i>
     <i type="int" name="MAXMIX">   -45</i>
     <i name="WC">    100.00000000</i>
     <i type="int" name="INIMIX">     1</i>
     <i type="int" name="MIXPRE">     1</i>
     <i type="int" name="MREMOVE">     5</i>
    </separator>
   </separator>
   <separator name="electronic dipolcorrection" >
    <i type="logical" name="LDIPOL"> F  </i>
    <i type="logical" name="LMONO"> F  </i>
    <i type="int" name="IDIPOL">     0</i>
    <i name="EPSILON">      1.00000000</i>
    <v name="DIPOL">   -100.00000000   -100.00000000   -100.00000000</v>
    <i name="EFIELD">      0.00000000</i>
   </separator>
  </separator>
  <separator name="grids" >
   <i type="int" name="NGX">   120</i>
   <i type="int" name="NGY">   120</i>
   <i type="int" name="NGZ">   126</i>
   <i type="int" name="NGXF">   240</i>
   <i type="int" name="NGYF">   240</i>
   <i type="int" name="NGZF">   252</i>
   <i type="logical" name="ADDGRID"> T  </i>
  </separator>
  <separator name="ionic" >
   <i type="int" name="NSW">     0</i>
   <i type="int" name="IBRION">    -1</i>
   <i type="int" name="MDALGO">     0</i>
   <i type="int" name="ISIF">     3</i>
   <i name="PSTRESS">      0.00000000</i>
   <i name="EDIFFG">      0.00000010</i>
   <i type="int" name="NFREE">     0</i>
   <i name="POTIM">      0.50000000</i>
   <i name="SMASS">     -3.00000000</i>
   <i name="SCALEE">      1.00000000</i>
  </separator>
  <separator name="ionic md" >
   <i name="TEBEG">      0.00010000</i>
   <i name="TEEND">      0.00010000</i>
   <i type="int" name="NBLOCK">     1</i>
   <i type="int" name="KBLOCK">     1</i>
   <i type="int" name="NPACO">   256</i>
   <i name="APACO">     16.00000000</i>
  </separator>
  <separator name="symmetry" >
   <i type="int" name="ISYM">     0</i>
   <i name="SYMPREC">      0.00001000</i>
  </separator>
  <separator name="dos" >
   <i type="int" name="LORBIT">     0</i>
   <v name="RWIGS">     -1.00000000     -1.00000000</v>
   <i type="int" name="NEDOS">   301</i>
   <i name="EMIN">     10.00000000</i>
   <i name="EMAX">    -10.00000000</i>
   <i name="EFERMI">      0.00000000</i>
  </separator>
  <separator name="writing" >
   <i type="int" name="NWRITE">     2</i>
   <i type="logical" name="LWAVE"> F  </i>
   <i type="logical" name="LDOWNSAMPLE"> F  </i>
   <i type="logical" name="LCHARG"> T  </i>
   <i type="logical" name="LPARD"> F  </i>
   <i type="logical" name="LVTOT"> F  </i>
   <i type="logical" name="LVHAR"> F  </i>
   <i type="logical" name="LELF"> F  </i>
   <i type="logical" name="LOPTICS"> F  </i>
   <v name="STM">      0.00000000      0.00000000      0.00000000      0.00000000      0.00000000      0.00000000      0.00000000</v>
  </separator>
  <separator name="performance" >
   <i type="int" name="NPAR">     1</i>
   <i type="int" name="NSIM">     4</i>
   <i type="int" name="NBLK">    -1</i>
   <i type="logical" name="LPLANE"> T  </i>
   <i type="logical" name="LSCALAPACK"> T  </i>
   <i type="logical" name="LSCAAWARE"> F  </i>
   <i type="logical" name="LSCALU"> F  </i>
   <i type="logical" name="LASYNC"> F  </i>
   <i type="logical" name="LORBITALREAL"> F  </i>
  </separator>
  <separator name="miscellaneous" >
   <i type="int" name="IDIOT">     3</i>
   <i type="int" name="ISPECIAL">     0</i>
   <i type="logical" name="LMUSIC"> F  </i>
   <v name="POMASS">    107.86800000     78.96000000</v>
   <v name="DARWINR">      0.00000000      0.00000000</v>
   <v name="DARWINV">      1.00000000      1.00000000</v>
   <i type="logical" name="LCORR"> T  </i>
  </separator>
  <i type="logical" name="GGA_COMPAT"> T  </i>
  <i type="logical" name="LBERRY"> F  </i>
  <i type="int" name="ICORELEVEL">     0</i>
  <i type="logical" name="LDAU"> F  </i>
  <i type="int" name="I_CONSTRAINED_M">     0</i>
  <separator name="electronic exchange-correlation" >
   <i type="string" name="GGA">PS</i>
   <i type="int" name="VOSKOWN">     0</i>
   <i type="logical" name="LHFCALC"> F  </i>
   <i type="string" name="PRECFOCK"></i>
   <i type="logical" name="LSYMGRAD"> F  </i>
   <i type="logical" name="LHFONE"> F  </i>
   <i type="logical" name="LRHFCALC"> F  </i>
   <i type="logical" name="LTHOMAS"> F  </i>
   <i type="logical" name="LMODELHF"> F  </i>
   <i name="ENCUT4O">     -1.00000000</i>
   <i type="int" name="EXXOEP">     0</i>
   <i type="int" name="FOURORBIT">     0</i>
   <i name="AEXX">      0.00000000</i>
   <i name="HFALPHA">      0.00000000</i>
   <i name="MCALPHA">      0.00000000</i>
   <i name="ALDAX">      1.00000000</i>
   <i name="AGGAX">      1.00000000</i>
   <i name="ALDAC">      1.00000000</i>
   <i name="AGGAC">      1.00000000</i>
   <i type="int" name="NKREDX">     1</i>
   <i type="int" name="NKREDY">     1</i>
   <i type="int" name="NKREDZ">     1</i>
   <i type="logical" name="SHIFTRED"> F  </i>
   <i type="logical" name="ODDONLY"> F  </i>
   <i type="logical" name="EVENONLY"> F  </i>
   <i type="int" name="LMAXFOCK">     0</i>
   <i type="int" name="NMAXFOCKAE">     0</i>
   <i type="logical" name="LFOCKAEDFT"> F  </i>
   <i name="HFSCREEN">      0.00000000</i>
   <i name="HFSCREENC">      0.00000000</i>
   <i type="int" name="NBANDSGWLOW">     0</i>
  </separator>
  <separator name="vdW DFT" >
   <i type="logical" name="LUSE_VDW"> F  </i>
   <i name="Zab_VDW">     -0.84910000</i>
   <i name="PARAM1">      0.12340000</i>
   <i name="PARAM2">      1.00000000</i>
   <i name="PARAM3">      0.00000000</i>
  </separator>
  <separator name="model GW" >
   <i type="int" name="MODEL_GW">     0</i>
   <i name="MODEL_EPS0">     11.69349825</i>
   <i name="MODEL_ALPHA">      1.00000000</i>
  </separator>
  <separator name="linear response parameters" >
   <i type="logical" name="LEPSILON"> F  </i>
   <i type="logical" name="LRPA"> F  </i>
   <i type="logical" name="LNABLA"> F  </i>
   <i type="logical" name="LVEL"> F  </i>
   <i type="int" name="KINTER">     0</i>
   <i name="CSHIFT">      0.10000000</i>
   <i name="OMEGAMAX">     -1.00000000</i>
   <i name="DEG_THRESHOLD">      0.00200000</i>
   <i name="RTIME">     -0.10000000</i>
   <i name="WPLASMAI">      0.00000000</i>
   <v name="DFIELD">      0.00000000      0.00000000      0.00000000</v>
   <v name="WPLASMA">      0.00000000      0.00000000      0.00000000      0.00000000      0.00000000      0.00000000      0.00000000      0.00000000      0.00000000</v>
  </separator>
  <separator name="orbital magnetization" >
   <i type="logical" name="NUCIND"> F  </i>
   <v name="MAGPOS">      0.00000000      0.00000000      0.00000000</v>
   <i type="logical" name="LNICSALL"> T  </i>
   <i type="logical" name="ORBITALMAG"> F  </i>
   <i type="logical" name="LMAGBLOCH"> F  </i>
   <i type="logical" name="LCHIMAG"> F  </i>
   <i type="logical" name="LGAUGE"> T  </i>
   <i type="int" name="MAGATOM">     0</i>
   <v name="MAGDIPOL">      0.00000000      0.00000000      0.00000000</v>
   <v name="AVECCONST">      0.00000000      0.00000000      0.00000000</v>
  </separator>
  <separator name="response functions" >
   <i type="logical" name="LADDER"> F  </i>
   <i type="logical" name="LRPAFORCE"> F  </i>
   <i type="logical" name="LFXC"> F  </i>
   <i type="logical" name="LHARTREE"> T  </i>
   <i type="int" name="IBSE">     0</i>
   <v type="int" name="KPOINT">    -1     0     0     0</v>
   <i type="logical" name="LTCTE"> F  </i>
   <i type="logical" name="LTETE"> F  </i>
   <i type="logical" name="LTRIPLET"> F  </i>
   <i type="logical" name="LFXCEPS"> F  </i>
   <i type="logical" name="LFXHEG"> F  </i>
   <i type="int" name="NATURALO">     2</i>
   <i type="logical" name="L2ORDER"> F  </i>
   <i type="logical" name="LMP2LT"> F  </i>
   <i type="logical" name="LUSEW"> F  </i>
   <i name="ENCUTGW">     -2.00000000</i>
   <i name="ENCUTGWSOFT">     -2.00000000</i>
   <i name="ENCUTLF">     -1.00000000</i>
   <i type="int" name="LMAXMP2">    -1</i>
   <i name="SCISSOR">      0.00000000</i>
   <i type="int" name="NOMEGA">     0</i>
   <i type="int" name="NOMEGAR">     0</i>
   <i type="int" name="NBANDSGW">    -1</i>
   <i type="int" name="NBANDSO">    -1</i>
   <i type="int" name="NBANDSV">    -1</i>
   <i type="int" name="NELM">   200</i>
   <i type="int" name="NELMHF">     1</i>
   <i type="int" name="DIM">     3</i>
   <i type="int" name="ANTIRES">     0</i>
   <i name="OMEGAMAX">    -30.00000000</i>
   <i name="OMEGAMIN">    -30.00000000</i>
   <i name="OMEGATL">   -200.00000000</i>
   <i type="int" name="OMEGAGRID">   140</i>
   <i name="CSHIFT">     -0.10000000</i>
   <i type="logical" name="SELFENERGY"> F  </i>
   <i type="logical" name="LSPECTRAL"> F  </i>
   <i type="logical" name="LSPECTRALGW"> F  </i>
   <i type="logical" name="LSINGLES"> F  </i>
   <i type="logical" name="LFERMIGW"> F  </i>
   <i type="logical" name="ODDONLYGW"> F  </i>
   <i type="logical" name="EVENONLYGW"> F  </i>
   <i type="int" name="NKREDLFX">     1</i>
   <i type="int" name="NKREDLFY">     1</i>
   <i type="int" name="NKREDLFZ">     1</i>
   <i type="int" name="MAXMEM">  2800</i>
   <i type="int" name="TELESCOPE">     0</i>
   <i type="int" name="TAUPAR">     1</i>
   <i type="int" name="OMEGAPAR">    -1</i>
   <i name="LAMBDA">      1.00000000</i>
  </separator>
  <separator name="External order field" >
   <i name="OFIELD_KAPPA">      0.00000000</i>
   <v name="OFIELD_K">      0.00000000      0.00000000      0.00000000</v>
   <i name="OFIELD_Q6_NEAR">      0.00000000</i>
   <i name="OFIELD_Q6_FAR">      0.00000000</i>
   <i name="OFIELD_A">      0.00000000</i>
  </separator>
 </parameters>
 <atominfo>
  <atoms>     144 </atoms>
  <types>       2 </types>
  <array name="atoms" >
   <dimension dim="1">ion</dimension>
   <field type="string">element</field>
   <field type="int">atomtype</field>
   <set>
    <rc><c>Ag</c><c>   1</c></rc>
    <rc><c>Ag</c><c>   1</c></rc>
    <rc><c>Ag</c><c>   1</c></rc>
    <rc><c>Ag</c><c>   1</c></rc>
    <rc><c>Ag</c><c>   1</c></rc>
    <rc><c>Ag</c><c>   1</c></rc>
    <rc><c>Ag</c><c>   1</c></rc>
    <rc><c>Ag</c><c>   1</c></rc>
    <rc><c>Ag</c><c>   1</c></rc>
    <rc><c>Ag</c><c>   1</c></rc>
    <rc><c>Ag</c><c>   1</c></rc>
    <rc><c>Ag</c><c>   1</c></rc>
    <rc><c>Ag</c><c>   1</c></rc>
    <rc><c>Ag</c><c>   1</c></rc>
    <rc><c>Ag</c><c>   1</c></rc>
    <rc><c>Ag</c><c>   1</c></rc>
    <rc><c>Ag</c><c>   1</c></rc>
    <rc><c>Ag</c><c>   1</c></rc>
    <rc><c>Ag</c><c>   1</c></rc>
    <rc><c>Ag</c><c>   1</c></rc>
    <rc><c>Ag</c><c>   1</c></rc>
    <rc><c>Ag</c><c>   1</c></rc>
    <rc><c>Ag</c><c>   1</c></rc>
    <rc><c>Ag</c><c>   1</c></rc>
    <rc><c>Ag</c><c>   1</c></rc>
    <rc><c>Ag</c><c>   1</c></rc>
    <rc><c>Ag</c><c>   1</c></rc>
    <rc><c>Ag</c><c>   1</c></rc>
    <rc><c>Ag</c><c>   1</c></rc>
    <rc><c>Ag</c><c>   1</c></rc>
    <rc><c>Ag</c><c>   1</c></rc>
    <rc><c>Ag</c><c>   1</c></rc>
    <rc><c>Ag</c><c>   1</c></rc>
    <rc><c>Ag</c><c>   1</c></rc>
    <rc><c>Ag</c><c>   1</c></rc>
    <rc><c>Ag</c><c>   1</c></rc>
    <rc><c>Ag</c><c>   1</c></rc>
    <rc><c>Ag</c><c>   1</c></rc>
    <rc><c>Ag</c><c>   1</c></rc>
    <rc><c>Ag</c><c>   1</c></rc>
    <rc><c>Ag</c><c>   1</c></rc>
    <rc><c>Ag</c><c>   1</c></rc>
    <rc><c>Ag</c><c>   1</c></rc>
    <rc><c>Ag</c><c>   1</c></rc>
    <rc><c>Ag</c><c>   1</c></rc>
    <rc><c>Ag</c><c>   1</c></rc>
    <rc><c>Ag</c><c>   1</c></rc>
    <rc><c>Ag</c><c>   1</c></rc>
    <rc><c>Ag</c><c>   1</c></rc>
    <rc><c>Ag</c><c>   1</c></rc>
    <rc><c>Ag</c><c>   1</c></rc>
    <rc><c>Ag</c><c>   1</c></rc>
    <rc><c>Ag</c><c>   1</c></rc>
    <rc><c>Ag</c><c>   1</c></rc>
    <rc><c>Ag</c><c>   1</c></rc>
    <rc><c>Ag</c><c>   1</c></rc>
    <rc><c>Ag</c><c>   1</c></rc>
    <rc><c>Ag</c><c>   1</c></rc>
    <rc><c>Ag</c><c>   1</c></rc>
    <rc><c>Ag</c><c>   1</c></rc>
    <rc><c>Ag</c><c>   1</c></rc>
    <rc><c>Ag</c><c>   1</c></rc>
    <rc><c>Ag</c><c>   1</c></rc>
    <rc><c>Ag</c><c>   1</c></rc>
    <rc><c>Ag</c><c>   1</c></rc>
    <rc><c>Ag</c><c>   1</c></rc>
    <rc><c>Ag</c><c>   1</c></rc>
    <rc><c>Ag</c><c>   1</c></rc>
    <rc><c>Ag</c><c>   1</c></rc>
    <rc><c>Ag</c><c>   1</c></rc>
    <rc><c>Ag</c><c>   1</c></rc>
    <rc><c>Ag</c><c>   1</c></rc>
    <rc><c>Ag</c><c>   1</c></rc>
    <rc><c>Ag</c><c>   1</c></rc>
    <rc><c>Ag</c><c>   1</c></rc>
    <rc><c>Ag</c><c>   1</c></rc>
    <rc><c>Ag</c><c>   1</c></rc>
    <rc><c>Ag</c><c>   1</c></rc>
    <rc><c>Ag</c><c>   1</c></rc>
    <rc><c>Ag</c><c>   1</c></rc>
    <rc><c>Ag</c><c>   1</c></rc>
    <rc><c>Ag</c><c>   1</c></rc>
    <rc><c>Ag</c><c>   1</c></rc>
    <rc><c>Ag</c><c>   1</c></rc>
    <rc><c>Ag</c><c>   1</c></rc>
    <rc><c>Ag</c><c>   1</c></rc>
    <rc><c>Ag</c><c>   1</c></rc>
    <rc><c>Ag</c><c>   1</c></rc>
    <rc><c>Ag</c><c>   1</c></rc>
    <rc><c>Ag</c><c>   1</c></rc>
    <rc><c>Ag</c><c>   1</c></rc>
    <rc><c>Ag</c><c>   1</c></rc>
    <rc><c>Ag</c><c>   1</c></rc>
    <rc><c>Ag</c><c>   1</c></rc>
    <rc><c>Ag</c><c>   1</c></rc>
    <rc><c>Ag</c><c>   1</c></rc>
    <rc><c>Se</c><c>   2</c></rc>
    <rc><c>Se</c><c>   2</c></rc>
    <rc><c>Se</c><c>   2</c></rc>
    <rc><c>Se</c><c>   2</c></rc>
    <rc><c>Se</c><c>   2</c></rc>
    <rc><c>Se</c><c>   2</c></rc>
    <rc><c>Se</c><c>   2</c></rc>
    <rc><c>Se</c><c>   2</c></rc>
    <rc><c>Se</c><c>   2</c></rc>
    <rc><c>Se</c><c>   2</c></rc>
    <rc><c>Se</c><c>   2</c></rc>
    <rc><c>Se</c><c>   2</c></rc>
    <rc><c>Se</c><c>   2</c></rc>
    <rc><c>Se</c><c>   2</c></rc>
    <rc><c>Se</c><c>   2</c></rc>
    <rc><c>Se</c><c>   2</c></rc>
    <rc><c>Se</c><c>   2</c></rc>
    <rc><c>Se</c><c>   2</c></rc>
    <rc><c>Se</c><c>   2</c></rc>
    <rc><c>Se</c><c>   2</c></rc>
    <rc><c>Se</c><c>   2</c></rc>
    <rc><c>Se</c><c>   2</c></rc>
    <rc><c>Se</c><c>   2</c></rc>
    <rc><c>Se</c><c>   2</c></rc>
    <rc><c>Se</c><c>   2</c></rc>
    <rc><c>Se</c><c>   2</c></rc>
    <rc><c>Se</c><c>   2</c></rc>
    <rc><c>Se</c><c>   2</c></rc>
    <rc><c>Se</c><c>   2</c></rc>
    <rc><c>Se</c><c>   2</c></rc>
    <rc><c>Se</c><c>   2</c></rc>
    <rc><c>Se</c><c>   2</c></rc>
    <rc><c>Se</c><c>   2</c></rc>
    <rc><c>Se</c><c>   2</c></rc>
    <rc><c>Se</c><c>   2</c></rc>
    <rc><c>Se</c><c>   2</c></rc>
    <rc><c>Se</c><c>   2</c></rc>
    <rc><c>Se</c><c>   2</c></rc>
    <rc><c>Se</c><c>   2</c></rc>
    <rc><c>Se</c><c>   2</c></rc>
    <rc><c>Se</c><c>   2</c></rc>
    <rc><c>Se</c><c>   2</c></rc>
    <rc><c>Se</c><c>   2</c></rc>
    <rc><c>Se</c><c>   2</c></rc>
    <rc><c>Se</c><c>   2</c></rc>
    <rc><c>Se</c><c>   2</c></rc>
    <rc><c>Se</c><c>   2</c></rc>
    <rc><c>Se</c><c>   2</c></rc>
   </set>
  </array>
  <array name="atomtypes" >
   <dimension dim="1">type</dimension>
   <field type="int">atomspertype</field>
   <field type="string">element</field>
   <field>mass</field>
   <field>valence</field>
   <field type="string">pseudopotential</field>
   <set>
    <rc><c>  96</c><c>Ag</c><c>    107.86800000</c><c>     11.00000000</c><c>  PAW_PBE Ag 02Apr2005                  </c></rc>
    <rc><c>  48</c><c>Se</c><c>     78.96000000</c><c>      6.00000000</c><c>  PAW_PBE Se 06Sep2000                  </c></rc>
   </set>
  </array>
 </atominfo>
 <structure name="initialpos" >
  <crystal>
   <varray name="basis" >
    <v>      14.01039598       0.00139138       0.00000000 </v>
    <v>      -0.00150196      13.76691092       0.00000000 </v>
    <v>       0.00000000       0.00000000      14.55019386 </v>
   </varray>
   <i name="volume">   2806.43958022 </i>
   <varray name="rec_basis" >
    <v>       0.07137557       0.00000779       0.00000000 </v>
    <v>      -0.00000721       0.07263794       0.00000000 </v>
    <v>       0.00000000       0.00000000       0.06872761 </v>
   </varray>
  </crystal>
  <varray name="positions" >
   <v>       0.42987898       0.17167077       0.33247735 </v>
   <v>       0.92987898       0.17167077       0.33247735 </v>
   <v>       0.42987898       0.67167077       0.33247735 </v>
   <v>       0.92987898       0.67167077       0.33247735 </v>
   <v>       0.42987898       0.17167077       0.66581068 </v>
   <v>       0.92987898       0.17167077       0.66581068 </v>
   <v>       0.42987898       0.67167077       0.66581068 </v>
   <v>       0.92987898       0.67167077       0.66581068 </v>
   <v>       0.42987898       0.17167077       0.99914401 </v>
   <v>       0.92987898       0.17167077       0.99914401 </v>
   <v>       0.42987898       0.67167077       0.99914401 </v>
   <v>       0.92987898       0.67167077       0.99914401 </v>
   <v>       0.07012102       0.32832923       0.33247735 </v>
   <v>       0.57012102       0.32832923       0.33247735 </v>
   <v>       0.07012102       0.82832923       0.33247735 </v>
   <v>       0.57012102       0.82832923       0.33247735 </v>
   <v>       0.07012102       0.32832923       0.66581068 </v>
   <v>       0.57012102       0.32832923       0.66581068 </v>
   <v>       0.07012102       0.82832923       0.66581068 </v>
   <v>       0.57012102       0.82832923       0.66581068 </v>
   <v>       0.07012102       0.32832923       0.99914401 </v>
   <v>       0.57012102       0.32832923       0.99914401 </v>
   <v>       0.07012102       0.82832923       0.99914401 </v>
   <v>       0.57012102       0.82832923       0.99914401 </v>
   <v>       0.32012053       0.42094729       0.05641075 </v>
   <v>       0.82012053       0.42167367       0.05641075 </v>
   <v>       0.32012053       0.92167367       0.05641075 </v>
   <v>       0.82012053       0.92167367       0.05641075 </v>
   <v>       0.32012053       0.42167367       0.38974408 </v>
   <v>       0.82012053       0.42167367       0.38974408 </v>
   <v>       0.32012053       0.92167367       0.38974408 </v>
   <v>       0.82012053       0.92167367       0.38974408 </v>
   <v>       0.32012053       0.42167367       0.72307741 </v>
   <v>       0.82012053       0.42167367       0.72307741 </v>
   <v>       0.32012053       0.92167367       0.72307741 </v>
   <v>       0.82012053       0.92167367       0.72307741 </v>
   <v>       0.17987947       0.07832633       0.05641075 </v>
   <v>       0.67987947       0.07832633       0.05641075 </v>
   <v>       0.17987947       0.57832633       0.05641075 </v>
   <v>       0.67987947       0.57832633       0.05641075 </v>
   <v>       0.17987947       0.07832633       0.38974408 </v>
   <v>       0.67987947       0.07832633       0.38974408 </v>
   <v>       0.17987947       0.57832633       0.38974408 </v>
   <v>       0.67987947       0.57832633       0.38974408 </v>
   <v>       0.17987947       0.07832633       0.72307741 </v>
   <v>       0.67987947       0.07832633       0.72307741 </v>
   <v>       0.17987947       0.57832633       0.72307741 </v>
   <v>       0.67987947       0.57832633       0.72307741 </v>
   <v>       0.17987776       0.32832369       0.16580856 </v>
   <v>       0.67987776       0.32832369       0.16580856 </v>
   <v>       0.17987776       0.82832369       0.16580856 </v>
   <v>       0.67987776       0.82832369       0.16580856 </v>
   <v>       0.17987776       0.32832369       0.49914189 </v>
   <v>       0.67987776       0.32832369       0.49914189 </v>
   <v>       0.17987776       0.82832369       0.49914189 </v>
   <v>       0.67987776       0.82832369       0.49914189 </v>
   <v>       0.17987776       0.32832369       0.83247522 </v>
   <v>       0.67987776       0.32832369       0.83247522 </v>
   <v>       0.17987776       0.82832369       0.83247522 </v>
   <v>       0.67987776       0.82832369       0.83247522 </v>
   <v>       0.32012224       0.17167631       0.16580856 </v>
   <v>       0.82012224       0.17167631       0.16580856 </v>
   <v>       0.32012224       0.67167631       0.16580856 </v>
   <v>       0.82012224       0.67167631       0.16580856 </v>
   <v>       0.32012224       0.17167631       0.49914189 </v>
   <v>       0.82012224       0.17167631       0.49914189 </v>
   <v>       0.32012224       0.67167631       0.49914189 </v>
   <v>       0.82012224       0.67167631       0.49914189 </v>
   <v>       0.32012224       0.17167631       0.83247522 </v>
   <v>       0.82012224       0.17167631       0.83247522 </v>
   <v>       0.32012224       0.67167631       0.83247522 </v>
   <v>       0.82012224       0.67167631       0.83247522 </v>
   <v>       0.42987656       0.42167494       0.22308000 </v>
   <v>       0.92987656       0.42167494       0.22308000 </v>
   <v>       0.42987656       0.92167494       0.22308000 </v>
   <v>       0.92987656       0.92167494       0.22308000 </v>
   <v>       0.42987656       0.42167494       0.55641333 </v>
   <v>       0.92987656       0.42167494       0.55641333 </v>
   <v>       0.42987656       0.92167494       0.55641333 </v>
   <v>       0.92987656       0.92167494       0.55641333 </v>
   <v>       0.42987656       0.42167494       0.88974666 </v>
   <v>       0.92987656       0.42167494       0.88974666 </v>
   <v>       0.42987656       0.92167494       0.88974666 </v>
   <v>       0.92987656       0.92167494       0.88974666 </v>
   <v>       0.07012344       0.07832506       0.22308000 </v>
   <v>       0.57012344       0.07832506       0.22308000 </v>
   <v>       0.07012344       0.57832506       0.22308000 </v>
   <v>       0.57012344       0.57832506       0.22308000 </v>
   <v>       0.07012344       0.07832506       0.55641333 </v>
   <v>       0.57012344       0.07832506       0.55641333 </v>
   <v>       0.07012344       0.57832506       0.55641333 </v>
   <v>       0.57012344       0.57832506       0.55641333 </v>
   <v>       0.07012344       0.07832506       0.88974666 </v>
   <v>       0.57012344       0.07832506       0.88974666 </v>
   <v>       0.07012344       0.57832506       0.88974666 </v>
   <v>       0.57012344       0.57832506       0.88974666 </v>
   <v>       0.00000000       0.00000000       0.05479365 </v>
   <v>       0.50000000       0.00000000       0.05479365 </v>
   <v>       0.00000000       0.50000000       0.05479365 </v>
   <v>       0.50000000       0.50000000       0.05479365 </v>
   <v>       0.00000000       0.00000000       0.38812698 </v>
   <v>       0.50000000       0.00000000       0.38812698 </v>
   <v>       0.00000000       0.50000000       0.38812698 </v>
   <v>       0.50000000       0.50000000       0.38812698 </v>
   <v>       0.00000000       0.00000000       0.72146032 </v>
   <v>       0.50000000       0.00000000       0.72146032 </v>
   <v>       0.00000000       0.50000000       0.72146032 </v>
   <v>       0.50000000       0.50000000       0.72146032 </v>
   <v>       0.25000000       0.00000000       0.22145206 </v>
   <v>       0.75000000       0.00000000       0.22145206 </v>
   <v>       0.25000000       0.50000000       0.22145206 </v>
   <v>       0.75000000       0.50000000       0.22145206 </v>
   <v>       0.25000000       0.00000000       0.55478539 </v>
   <v>       0.75000000       0.00000000       0.55478539 </v>
   <v>       0.25000000       0.50000000       0.55478539 </v>
   <v>       0.75000000       0.50000000       0.55478539 </v>
   <v>       0.25000000       0.00000000       0.88811873 </v>
   <v>       0.75000000       0.00000000       0.88811873 </v>
   <v>       0.25000000       0.50000000       0.88811873 </v>
   <v>       0.75000000       0.50000000       0.88811873 </v>
   <v>       0.00000000       0.25000000       0.16743769 </v>
   <v>       0.50000000       0.25000000       0.16743769 </v>
   <v>       0.00000000       0.75000000       0.16743769 </v>
   <v>       0.50000000       0.75000000       0.16743769 </v>
   <v>       0.00000000       0.25000000       0.50077102 </v>
   <v>       0.50000000       0.25000000       0.50077102 </v>
   <v>       0.00000000       0.75000000       0.50077102 </v>
   <v>       0.50000000       0.75000000       0.50077102 </v>
   <v>       0.00000000       0.25000000       0.83410435 </v>
   <v>       0.50000000       0.25000000       0.83410435 </v>
   <v>       0.00000000       0.75000000       0.83410435 </v>
   <v>       0.50000000       0.75000000       0.83410435 </v>
   <v>       0.25000000       0.25000000       0.00076332 </v>
   <v>       0.75000000       0.25000000       0.00076332 </v>
   <v>       0.25000000       0.75000000       0.00076332 </v>
   <v>       0.75000000       0.75000000       0.00076332 </v>
   <v>       0.25000000       0.25000000       0.33409665 </v>
   <v>       0.75000000       0.25000000       0.33409665 </v>
   <v>       0.25000000       0.75000000       0.33409665 </v>
   <v>       0.75000000       0.75000000       0.33409665 </v>
   <v>       0.25000000       0.25000000       0.66742999 </v>
   <v>       0.75000000       0.25000000       0.66742999 </v>
   <v>       0.25000000       0.75000000       0.66742999 </v>
   <v>       0.75000000       0.75000000       0.66742999 </v>
  </varray>
 </structure>
 <calculation>
  <scstep>
   <time name="dav">  933.75  936.23</time>
   <time name="total">  937.25  939.75</time>
   <energy>
    <i name="alphaZ">   4890.97834259 </i>
    <i name="ewald"> -98843.22851526 </i>
    <i name="hartreedc"> -25789.04977574 </i>
    <i name="XCdc">   -889.86268920 </i>
    <i name="pawpsdc"> 106286.73805879 </i>
    <i name="pawaedc">-101298.59693205 </i>
    <i name="eentropy">     -0.04298216 </i>
    <i name="bandstr">  14366.17348321 </i>
    <i name="atom"> 111881.97810035 </i>
    <i name="e_fr_energy">  10605.08709053 </i>
    <i name="e_wo_entrp">  10605.13007269 </i>
    <i name="e_0_energy">  10605.10858161 </i>
   </energy>
  </scstep>
  <scstep>
   <time name="dav">  972.64  975.22</time>
   <time name="total">  972.65  975.23</time>
   <energy>
    <i name="e_fr_energy">    151.47609803 </i>
    <i name="e_wo_entrp">    151.48900990 </i>
    <i name="e_0_energy">    151.48255397 </i>
   </energy>
  </scstep>
  <scstep>
   <time name="dav"> 1027.64 1030.30</time>
   <time name="total"> 1027.65 1030.31</time>
   <energy>
    <i name="e_fr_energy">   -517.92848549 </i>
    <i name="e_wo_entrp">   -517.92235817 </i>
    <i name="e_0_energy">   -517.92542183 </i>
   </energy>
  </scstep>
  <scstep>
   <time name="dav"> 1003.19 1005.94</time>
   <time name="total"> 1003.20 1005.95</time>
   <energy>
    <i name="e_fr_energy">   -535.41751409 </i>
    <i name="e_wo_entrp">   -535.41206134 </i>
    <i name="e_0_energy">   -535.41478772 </i>
   </energy>
  </scstep>
  <scstep>
   <time name="dav"> 1015.57 1018.22</time>
   <time name="total"> 1029.75 1032.43</time>
   <energy>
    <i name="e_fr_energy">   -535.67124654 </i>
    <i name="e_wo_entrp">   -535.66578597 </i>
    <i name="e_0_energy">   -535.66851626 </i>
   </energy>
  </scstep>
  <scstep>
   <time name="dav">  973.55  975.92</time>
   <time name="total">  992.03  994.45</time>
   <energy>
    <i name="e_fr_energy">   -504.98342752 </i>
    <i name="e_wo_entrp">   -504.96795262 </i>
    <i name="e_0_energy">   -504.97569007 </i>
   </energy>
  </scstep>
  <scstep>
   <time name="dav">  971.82  974.24</time>
   <time name="total">  990.12  992.60</time>
   <energy>
    <i name="e_fr_energy">   -505.65761370 </i>
    <i name="e_wo_entrp">   -505.64186538 </i>
    <i name="e_0_energy">   -505.64973954 </i>
   </energy>
  </scstep>
  <scstep>
   <time name="dav">  989.72  992.21</time>
   <time name="total"> 1008.07 1010.60</time>
   <energy>
    <i name="e_fr_energy">   -505.18198117 </i>
    <i name="e_wo_entrp">   -505.16737982 </i>
    <i name="e_0_energy">   -505.17468049 </i>
   </energy>
  </scstep>
  <scstep>
   <time name="dav">  971.44  973.83</time>
   <time name="total">  989.86  992.30</time>
   <energy>
    <i name="e_fr_energy">   -505.12632596 </i>
    <i name="e_wo_entrp">   -505.11111295 </i>
    <i name="e_0_energy">   -505.11871946 </i>
   </energy>
  </scstep>
  <scstep>
   <time name="dav">  976.51  978.95</time>
   <time name="total">  994.83  997.31</time>
   <energy>
    <i name="e_fr_energy">   -505.12844937 </i>
    <i name="e_wo_entrp">   -505.11317866 </i>
    <i name="e_0_energy">   -505.12081402 </i>
   </energy>
  </scstep>
  <scstep>
   <time name="dav">  979.69  982.13</time>
   <time name="total">  997.92 1000.40</time>
   <energy>
    <i name="e_fr_energy">   -505.12832618 </i>
    <i name="e_wo_entrp">   -505.11312364 </i>
    <i name="e_0_energy">   -505.12072491 </i>
   </energy>
  </scstep>
  <scstep>
   <time name="dav">  983.39  985.90</time>
   <time name="total"> 1001.70 1004.25</time>
   <energy>
    <i name="e_fr_energy">   -505.12828375 </i>
    <i name="e_wo_entrp">   -505.11306098 </i>
    <i name="e_0_energy">   -505.12067236 </i>
   </energy>
  </scstep>
  <scstep>
   <time name="dav"> 1039.76 1042.39</time>
   <time name="total"> 1057.86 1060.54</time>
   <energy>
    <i name="e_fr_energy">   -505.12828386 </i>
    <i name="e_wo_entrp">   -505.11306394 </i>
    <i name="e_0_energy">   -505.12067390 </i>
   </energy>
  </scstep>
  <scstep>
   <time name="dav">  980.28  982.74</time>
   <time name="total">  998.31 1000.82</time>
   <energy>
    <i name="e_fr_energy">   -505.12828273 </i>
    <i name="e_wo_entrp">   -505.11306393 </i>
    <i name="e_0_energy">   -505.12067333 </i>
   </energy>
  </scstep>
  <scstep>
   <time name="dav">  981.84  984.27</time>
   <time name="total">  999.75 1002.22</time>
   <energy>
    <i name="e_fr_energy">   -505.12828122 </i>
    <i name="e_wo_entrp">   -505.11306262 </i>
    <i name="e_0_energy">   -505.12067192 </i>
   </energy>
  </scstep>
  <scstep>
   <time name="dav">  910.22  912.48</time>
   <time name="total">  913.72  915.99</time>
   <energy>
    <i name="alphaZ">   4890.97834259 </i>
    <i name="ewald"> -98843.22851526 </i>
    <i name="hartreedc"> -24657.88198301 </i>
    <i name="XCdc">   -922.44909232 </i>
    <i name="pawpsdc"> 122252.71622183 </i>
    <i name="pawaedc">-117444.97533739 </i>
    <i name="eentropy">     -0.01521839 </i>
    <i name="bandstr">   2337.74920037 </i>
    <i name="atom"> 111881.97810035 </i>
    <i name="e_fr_energy">   -505.12828123 </i>
    <i name="e_wo_entrp">   -505.11306283 </i>
    <i name="e_0_energy">   -505.12067203 </i>
   </energy>
  </scstep>
  <structure>
   <crystal>
    <varray name="basis" >
     <v>      14.01039598       0.00139138       0.00000000 </v>
     <v>      -0.00150196      13.76691092       0.00000000 </v>
     <v>       0.00000000       0.00000000      14.55019386 </v>
    </varray>
    <i name="volume">   2806.43958022 </i>
    <varray name="rec_basis" >
     <v>       0.07137557       0.00000779       0.00000000 </v>
     <v>      -0.00000721       0.07263794       0.00000000 </v>
     <v>       0.00000000       0.00000000       0.06872761 </v>
    </varray>
   </crystal>
   <varray name="positions" >
    <v>       0.42987898       0.17167077       0.33247735 </v>
    <v>       0.92987898       0.17167077       0.33247735 </v>
    <v>       0.42987898       0.67167077       0.33247735 </v>
    <v>       0.92987898       0.67167077       0.33247735 </v>
    <v>       0.42987898       0.17167077       0.66581068 </v>
    <v>       0.92987898       0.17167077       0.66581068 </v>
    <v>       0.42987898       0.67167077       0.66581068 </v>
    <v>       0.92987898       0.67167077       0.66581068 </v>
    <v>       0.42987898       0.17167077       0.99914401 </v>
    <v>       0.92987898       0.17167077       0.99914401 </v>
    <v>       0.42987898       0.67167077       0.99914401 </v>
    <v>       0.92987898       0.67167077       0.99914401 </v>
    <v>       0.07012102       0.32832923       0.33247735 </v>
    <v>       0.57012102       0.32832923       0.33247735 </v>
    <v>       0.07012102       0.82832923       0.33247735 </v>
    <v>       0.57012102       0.82832923       0.33247735 </v>
    <v>       0.07012102       0.32832923       0.66581068 </v>
    <v>       0.57012102       0.32832923       0.66581068 </v>
    <v>       0.07012102       0.82832923       0.66581068 </v>
    <v>       0.57012102       0.82832923       0.66581068 </v>
    <v>       0.07012102       0.32832923       0.99914401 </v>
    <v>       0.57012102       0.32832923       0.99914401 </v>
    <v>       0.07012102       0.82832923       0.99914401 </v>
    <v>       0.57012102       0.82832923       0.99914401 </v>
    <v>       0.32012053       0.42094729       0.05641075 </v>
    <v>       0.82012053       0.42167367       0.05641075 </v>
    <v>       0.32012053       0.92167367       0.05641075 </v>
    <v>       0.82012053       0.92167367       0.05641075 </v>
    <v>       0.32012053       0.42167367       0.38974408 </v>
    <v>       0.82012053       0.42167367       0.38974408 </v>
    <v>       0.32012053       0.92167367       0.38974408 </v>
    <v>       0.82012053       0.92167367       0.38974408 </v>
    <v>       0.32012053       0.42167367       0.72307741 </v>
    <v>       0.82012053       0.42167367       0.72307741 </v>
    <v>       0.32012053       0.92167367       0.72307741 </v>
    <v>       0.82012053       0.92167367       0.72307741 </v>
    <v>       0.17987947       0.07832633       0.05641075 </v>
    <v>       0.67987947       0.07832633       0.05641075 </v>
    <v>       0.17987947       0.57832633       0.05641075 </v>
    <v>       0.67987947       0.57832633       0.05641075 </v>
    <v>       0.17987947       0.07832633       0.38974408 </v>
    <v>       0.67987947       0.07832633       0.38974408 </v>
    <v>       0.17987947       0.57832633       0.38974408 </v>
    <v>       0.67987947       0.57832633       0.38974408 </v>
    <v>       0.17987947       0.07832633       0.72307741 </v>
    <v>       0.67987947       0.07832633       0.72307741 </v>
    <v>       0.17987947       0.57832633       0.72307741 </v>
    <v>       0.67987947       0.57832633       0.72307741 </v>
    <v>       0.17987776       0.32832369       0.16580856 </v>
    <v>       0.67987776       0.32832369       0.16580856 </v>
    <v>       0.17987776       0.82832369       0.16580856 </v>
    <v>       0.67987776       0.82832369       0.16580856 </v>
    <v>       0.17987776       0.32832369       0.49914189 </v>
    <v>       0.67987776       0.32832369       0.49914189 </v>
    <v>       0.17987776       0.82832369       0.49914189 </v>
    <v>       0.67987776       0.82832369       0.49914189 </v>
    <v>       0.17987776       0.32832369       0.83247522 </v>
    <v>       0.67987776       0.32832369       0.83247522 </v>
    <v>       0.17987776       0.82832369       0.83247522 </v>
    <v>       0.67987776       0.82832369       0.83247522 </v>
    <v>       0.32012224       0.17167631       0.16580856 </v>
    <v>       0.82012224       0.17167631       0.16580856 </v>
    <v>       0.32012224       0.67167631       0.16580856 </v>
    <v>       0.82012224       0.67167631       0.16580856 </v>
    <v>       0.32012224       0.17167631       0.49914189 </v>
    <v>       0.82012224       0.17167631       0.49914189 </v>
    <v>       0.32012224       0.67167631       0.49914189 </v>
    <v>       0.82012224       0.67167631       0.49914189 </v>
    <v>       0.32012224       0.17167631       0.83247522 </v>
    <v>       0.82012224       0.17167631       0.83247522 </v>
    <v>       0.32012224       0.67167631       0.83247522 </v>
    <v>       0.82012224       0.67167631       0.83247522 </v>
    <v>       0.42987656       0.42167494       0.22308000 </v>
    <v>       0.92987656       0.42167494       0.22308000 </v>
    <v>       0.42987656       0.92167494       0.22308000 </v>
    <v>       0.92987656       0.92167494       0.22308000 </v>
    <v>       0.42987656       0.42167494       0.55641333 </v>
    <v>       0.92987656       0.42167494       0.55641333 </v>
    <v>       0.42987656       0.92167494       0.55641333 </v>
    <v>       0.92987656       0.92167494       0.55641333 </v>
    <v>       0.42987656       0.42167494       0.88974666 </v>
    <v>       0.92987656       0.42167494       0.88974666 </v>
    <v>       0.42987656       0.92167494       0.88974666 </v>
    <v>       0.92987656       0.92167494       0.88974666 </v>
    <v>       0.07012344       0.07832506       0.22308000 </v>
    <v>       0.57012344       0.07832506       0.22308000 </v>
    <v>       0.07012344       0.57832506       0.22308000 </v>
    <v>       0.57012344       0.57832506       0.22308000 </v>
    <v>       0.07012344       0.07832506       0.55641333 </v>
    <v>       0.57012344       0.07832506       0.55641333 </v>
    <v>       0.07012344       0.57832506       0.55641333 </v>
    <v>       0.57012344       0.57832506       0.55641333 </v>
    <v>       0.07012344       0.07832506       0.88974666 </v>
    <v>       0.57012344       0.07832506       0.88974666 </v>
    <v>       0.07012344       0.57832506       0.88974666 </v>
    <v>       0.57012344       0.57832506       0.88974666 </v>
    <v>       0.00000000       0.00000000       0.05479365 </v>
    <v>       0.50000000       0.00000000       0.05479365 </v>
    <v>       0.00000000       0.50000000       0.05479365 </v>
    <v>       0.50000000       0.50000000       0.05479365 </v>
    <v>       0.00000000       0.00000000       0.38812698 </v>
    <v>       0.50000000       0.00000000       0.38812698 </v>
    <v>       0.00000000       0.50000000       0.38812698 </v>
    <v>       0.50000000       0.50000000       0.38812698 </v>
    <v>       0.00000000       0.00000000       0.72146032 </v>
    <v>       0.50000000       0.00000000       0.72146032 </v>
    <v>       0.00000000       0.50000000       0.72146032 </v>
    <v>       0.50000000       0.50000000       0.72146032 </v>
    <v>       0.25000000       0.00000000       0.22145206 </v>
    <v>       0.75000000       0.00000000       0.22145206 </v>
    <v>       0.25000000       0.50000000       0.22145206 </v>
    <v>       0.75000000       0.50000000       0.22145206 </v>
    <v>       0.25000000       0.00000000       0.55478539 </v>
    <v>       0.75000000       0.00000000       0.55478539 </v>
    <v>       0.25000000       0.50000000       0.55478539 </v>
    <v>       0.75000000       0.50000000       0.55478539 </v>
    <v>       0.25000000       0.00000000       0.88811873 </v>
    <v>       0.75000000       0.00000000       0.88811873 </v>
    <v>       0.25000000       0.50000000       0.88811873 </v>
    <v>       0.75000000       0.50000000       0.88811873 </v>
    <v>       0.00000000       0.25000000       0.16743769 </v>
    <v>       0.50000000       0.25000000       0.16743769 </v>
    <v>       0.00000000       0.75000000       0.16743769 </v>
    <v>       0.50000000       0.75000000       0.16743769 </v>
    <v>       0.00000000       0.25000000       0.50077102 </v>
    <v>       0.50000000       0.25000000       0.50077102 </v>
    <v>       0.00000000       0.75000000       0.50077102 </v>
    <v>       0.50000000       0.75000000       0.50077102 </v>
    <v>       0.00000000       0.25000000       0.83410435 </v>
    <v>       0.50000000       0.25000000       0.83410435 </v>
    <v>       0.00000000       0.75000000       0.83410435 </v>
    <v>       0.50000000       0.75000000       0.83410435 </v>
    <v>       0.25000000       0.25000000       0.00076332 </v>
    <v>       0.75000000       0.25000000       0.00076332 </v>
    <v>       0.25000000       0.75000000       0.00076332 </v>
    <v>       0.75000000       0.75000000       0.00076332 </v>
    <v>       0.25000000       0.25000000       0.33409665 </v>
    <v>       0.75000000       0.25000000       0.33409665 </v>
    <v>       0.25000000       0.75000000       0.33409665 </v>
    <v>       0.75000000       0.75000000       0.33409665 </v>
    <v>       0.25000000       0.25000000       0.66742999 </v>
    <v>       0.75000000       0.25000000       0.66742999 </v>
    <v>       0.25000000       0.75000000       0.66742999 </v>
    <v>       0.75000000       0.75000000       0.66742999 </v>
   </varray>
  </structure>
  <varray name="forces" >
   <v>      -0.00000702       0.00006717       0.00004689 </v>
   <v>      -0.00004640       0.00003473       0.00005872 </v>
   <v>      -0.00003987       0.00006760      -0.00003532 </v>
   <v>       0.00001148       0.00003480      -0.00003087 </v>
   <v>       0.00001135       0.00006669      -0.00008838 </v>
   <v>      -0.00005307       0.00004450      -0.00010382 </v>
   <v>      -0.00001104       0.00006646      -0.00001996 </v>
   <v>       0.00001234       0.00004447      -0.00003347 </v>
   <v>       0.00086394      -0.00047955      -0.00021539 </v>
   <v>      -0.00004095       0.00005588      -0.00004634 </v>
   <v>      -0.00013492      -0.00048236       0.00015493 </v>
   <v>       0.00003131       0.00005608      -0.00002873 </v>
   <v>      -0.00001081      -0.00003442       0.00009190 </v>
   <v>       0.00001799      -0.00003472       0.00001093 </v>
   <v>       0.00005484      -0.00010563      -0.00001208 </v>
   <v>       0.00001258      -0.00010591      -0.00007889 </v>
   <v>       0.00000533      -0.00001532      -0.00012844 </v>
   <v>       0.00001585      -0.00001517      -0.00003113 </v>
   <v>       0.00006682      -0.00011488      -0.00004517 </v>
   <v>       0.00003310      -0.00011448      -0.00002499 </v>
   <v>      -0.00097789       0.00022875      -0.00024262 </v>
   <v>      -0.00004160       0.00022878      -0.00007642 </v>
   <v>       0.00008577      -0.00017438      -0.00002996 </v>
   <v>      -0.00000088      -0.00017402      -0.00002863 </v>
   <v>       0.01134193       0.02627442       0.00406071 </v>
   <v>       0.00008256       0.00004843       0.00004894 </v>
   <v>       0.00006470      -0.00019047       0.00007506 </v>
   <v>      -0.00004046      -0.00002404       0.00004971 </v>
   <v>      -0.00028560       0.00029217      -0.00015037 </v>
   <v>       0.00006306       0.00004284       0.00002841 </v>
   <v>       0.00006160      -0.00008488       0.00008325 </v>
   <v>       0.00002628      -0.00000958       0.00005710 </v>
   <v>      -0.00030795       0.00029211       0.00028895 </v>
   <v>       0.00007617       0.00004282       0.00004765 </v>
   <v>       0.00010752      -0.00008425      -0.00016348 </v>
   <v>       0.00001936      -0.00000952       0.00004111 </v>
   <v>      -0.00036732      -0.00182992       0.00092882 </v>
   <v>       0.00000099      -0.00004016       0.00006865 </v>
   <v>       0.00586915      -0.00587016       0.00026311 </v>
   <v>      -0.00061978      -0.00035577       0.00007614 </v>
   <v>       0.00001850       0.00001350       0.00005844 </v>
   <v>      -0.00000996      -0.00002371       0.00005594 </v>
   <v>       0.00046399      -0.00050440      -0.00060894 </v>
   <v>      -0.00002273      -0.00005926       0.00006707 </v>
   <v>      -0.00003785       0.00001286      -0.00002329 </v>
   <v>      -0.00000818      -0.00002384       0.00005055 </v>
   <v>       0.00052737      -0.00050334       0.00091463 </v>
   <v>      -0.00003358      -0.00005929       0.00007247 </v>
   <v>      -0.00578366      -0.00135289       0.00594475 </v>
   <v>       0.00009271       0.00001544      -0.00003969 </v>
   <v>       0.00000716      -0.00012925      -0.00003973 </v>
   <v>      -0.00008988      -0.00004371      -0.00000693 </v>
   <v>      -0.00003640       0.00003131       0.00002229 </v>
   <v>      -0.00000934       0.00003566       0.00000190 </v>
   <v>       0.00001129      -0.00008963       0.00003763 </v>
   <v>      -0.00000953      -0.00002651      -0.00001145 </v>
   <v>      -0.00049641       0.00028838      -0.00088228 </v>
   <v>       0.00005430       0.00002361      -0.00005968 </v>
   <v>      -0.00003625      -0.00032513      -0.00003591 </v>
   <v>      -0.00001460      -0.00002762      -0.00001242 </v>
   <v>       0.00021830      -0.00064119       0.00083417 </v>
   <v>      -0.00012936      -0.00002686      -0.00002868 </v>
   <v>      -0.00013340      -0.00064233       0.00012906 </v>
   <v>      -0.00000932      -0.00002697      -0.00002294 </v>
   <v>       0.00002473      -0.00002938       0.00000271 </v>
   <v>       0.00000559      -0.00000267      -0.00000516 </v>
   <v>      -0.00001241      -0.00002921      -0.00001926 </v>
   <v>       0.00000973      -0.00000291      -0.00000259 </v>
   <v>       0.00036608      -0.00031975      -0.00067100 </v>
   <v>      -0.00006399      -0.00002732      -0.00002832 </v>
   <v>      -0.00009172      -0.00031975       0.00016248 </v>
   <v>       0.00002267      -0.00002817      -0.00000417 </v>
   <v>      -0.00060194       0.00130425      -0.00071958 </v>
   <v>       0.00000037       0.00016770       0.00002968 </v>
   <v>       0.00006666      -0.00005028       0.00002235 </v>
   <v>       0.00001022      -0.00002089       0.00004032 </v>
   <v>      -0.00005018       0.00005007       0.00002846 </v>
   <v>       0.00003117       0.00005837       0.00001397 </v>
   <v>       0.00000956       0.00000101       0.00001444 </v>
   <v>       0.00000008      -0.00000996       0.00001209 </v>
   <v>      -0.00039124       0.00130743       0.00072280 </v>
   <v>      -0.00004399       0.00016769       0.00000248 </v>
   <v>       0.00015350      -0.00005002       0.00002589 </v>
   <v>      -0.00000681      -0.00002103      -0.00001526 </v>
   <v>      -0.00004359      -0.00000172       0.00004190 </v>
   <v>       0.00004657      -0.00011740       0.00007302 </v>
   <v>       0.00032300      -0.00011912      -0.00012297 </v>
   <v>      -0.00008952      -0.00007187      -0.00010073 </v>
   <v>       0.00000587       0.00002253      -0.00001473 </v>
   <v>      -0.00001361       0.00002250       0.00000245 </v>
   <v>       0.00010056      -0.00001650       0.00004273 </v>
   <v>      -0.00000232      -0.00001681       0.00003410 </v>
   <v>      -0.00009743      -0.00011661      -0.00008331 </v>
   <v>       0.00004145      -0.00000143      -0.00005012 </v>
   <v>       0.00039786      -0.00007307       0.00006934 </v>
   <v>      -0.00002886      -0.00011891       0.00006573 </v>
   <v>       0.00008915       0.00016893      -0.00014859 </v>
   <v>      -0.00007796       0.00012650      -0.00006681 </v>
   <v>      -0.00008299      -0.00014423       0.00003044 </v>
   <v>      -0.00834081      -0.00146099       0.00003797 </v>
   <v>       0.00001839       0.00001116      -0.00011221 </v>
   <v>       0.00000055       0.00004930      -0.00008054 </v>
   <v>      -0.00026402      -0.00010026      -0.00000823 </v>
   <v>       0.00002614      -0.00001632      -0.00011962 </v>
   <v>       0.00001249       0.00000191      -0.00004010 </v>
   <v>      -0.00006098      -0.00001908      -0.00006862 </v>
   <v>      -0.00026846      -0.00008773      -0.00017943 </v>
   <v>       0.00007951      -0.00006008      -0.00007116 </v>
   <v>      -0.00000349       0.00021581      -0.00009163 </v>
   <v>       0.00007683       0.00002896      -0.00002515 </v>
   <v>       0.00210105       0.00005322      -0.00374648 </v>
   <v>       0.00012278      -0.00004197       0.00011761 </v>
   <v>      -0.00004028       0.00009289      -0.00006838 </v>
   <v>      -0.00002651       0.00002366       0.00000995 </v>
   <v>       0.00002585       0.00009084      -0.00004827 </v>
   <v>      -0.00001170      -0.00000403      -0.00000239 </v>
   <v>      -0.00022533       0.00090819       0.00063313 </v>
   <v>       0.00002499       0.00000962       0.00003486 </v>
   <v>       0.00109208       0.00016123       0.00142059 </v>
   <v>       0.00016871      -0.00006052      -0.00011903 </v>
   <v>       0.00046277       0.00003771      -0.00020064 </v>
   <v>       0.00042916      -0.00032924       0.00033912 </v>
   <v>      -0.00007601       0.00003029      -0.00003378 </v>
   <v>       0.00014397       0.00018457      -0.00000308 </v>
   <v>      -0.00000156      -0.00006899      -0.00002556 </v>
   <v>       0.00005565      -0.00006074      -0.00003638 </v>
   <v>      -0.00006397       0.00001819      -0.00001870 </v>
   <v>      -0.00003356      -0.00000353      -0.00005829 </v>
   <v>       0.00031712       0.00000856       0.00017431 </v>
   <v>       0.00003038      -0.00035207      -0.00029449 </v>
   <v>      -0.00018693       0.00007774      -0.00001210 </v>
   <v>      -0.00007978       0.00001577       0.00000326 </v>
   <v>      -0.00609481      -0.01506338      -0.00889967 </v>
   <v>      -0.00007761       0.00001800       0.00008349 </v>
   <v>       0.00015973      -0.00024577       0.00021476 </v>
   <v>       0.00001201      -0.00000601       0.00006542 </v>
   <v>      -0.00008520      -0.00013528       0.00028773 </v>
   <v>       0.00004828      -0.00002374       0.00001105 </v>
   <v>       0.00002954       0.00036072       0.00007136 </v>
   <v>       0.00002881       0.00003551       0.00006668 </v>
   <v>       0.00001509      -0.00001683       0.00006498 </v>
   <v>       0.00005463      -0.00000803       0.00012579 </v>
   <v>      -0.00007164       0.00041274      -0.00011444 </v>
   <v>      -0.00001377       0.00007615       0.00004803 </v>
  </varray>
  <varray name="stress" >
   <v>      -0.17680498       0.01575063      -0.00011933 </v>
   <v>       0.01575081      -0.14340970       0.00445348 </v>
   <v>      -0.00011937       0.00445339      -0.15936678 </v>
  </varray>
  <energy>
   <i name="e_fr_energy">   -505.12828123 </i>
   <i name="e_wo_entrp">   -505.12067203 </i>
   <i name="e_0_energy">     -0.01521839 </i>
  </energy>
  <time name="totalsc">17792.4917839.08</time>
  <eigenvalues>
   <array>
    <dimension dim="1">band</dimension>
    <dimension dim="2">kpoint</dimension>
    <dimension dim="3">spin</dimension>
    <field>eigene</field>
    <field>occ</field>
    <set>
     <set comment="spin 1">
      <set comment="kpoint 1">
       <r>   -7.4639    1.0000 </r>
       <r>   -7.2297    1.0000 </r>
       <r>   -7.2294    1.0000 </r>
       <r>   -7.2158    1.0000 </r>
       <r>   -7.2156    1.0000 </r>
       <r>   -7.1646    1.0000 </r>
       <r>   -7.1640    1.0000 </r>
       <r>   -7.0700    1.0000 </r>
       <r>   -7.0695    1.0000 </r>
       <r>   -7.0694    1.0000 </r>
       <r>   -7.0693    1.0000 </r>
       <r>   -7.0097    1.0000 </r>
       <r>   -7.0091    1.0000 </r>
       <r>   -7.0088    1.0000 </r>
       <r>   -7.0088    1.0000 </r>
       <r>   -6.9944    1.0000 </r>
       <r>   -6.9939    1.0000 </r>
       <r>   -6.9936    1.0000 </r>
       <r>   -6.9935    1.0000 </r>
       <r>   -6.9476    1.0000 </r>
       <r>   -6.9353    1.0000 </r>
       <r>   -6.9350    1.0000 </r>
       <r>   -6.9203    1.0000 </r>
       <r>   -6.9192    1.0000 </r>
       <r>   -6.9191    1.0000 </r>
       <r>   -6.9190    1.0000 </r>
       <r>   -6.9190    1.0000 </r>
       <r>   -6.9188    1.0000 </r>
       <r>   -6.9187    1.0000 </r>
       <r>   -6.9186    1.0000 </r>
       <r>   -6.8373    1.0000 </r>
       <r>   -6.8367    1.0000 </r>
       <r>   -6.8364    1.0000 </r>
       <r>   -6.8363    1.0000 </r>
       <r>   -6.8238    1.0000 </r>
       <r>   -6.8183    1.0000 </r>
       <r>   -6.8177    1.0000 </r>
       <r>   -6.7728    1.0000 </r>
       <r>   -6.7725    1.0000 </r>
       <r>   -6.7673    1.0000 </r>
       <r>   -6.7669    1.0000 </r>
       <r>   -6.7667    1.0000 </r>
       <r>   -6.7666    1.0000 </r>
       <r>   -6.7548    1.0000 </r>
       <r>   -6.7546    1.0000 </r>
       <r>   -6.7401    1.0000 </r>
       <r>   -6.7398    1.0000 </r>
       <r>   -6.6844    1.0000 </r>
       <r>   -0.3462    1.0000 </r>
       <r>    0.0937    1.0000 </r>
       <r>    0.0941    1.0000 </r>
       <r>    0.0942    1.0000 </r>
       <r>    0.0943    1.0000 </r>
       <r>    0.0943    1.0000 </r>
       <r>    0.0944    1.0000 </r>
       <r>    0.0945    1.0000 </r>
       <r>    0.0946    1.0000 </r>
       <r>    0.1077    1.0000 </r>
       <r>    0.1078    1.0000 </r>
       <r>    0.1079    1.0000 </r>
       <r>    0.1081    1.0000 </r>
       <r>    0.1520    1.0000 </r>
       <r>    0.1522    1.0000 </r>
       <r>    0.1523    1.0000 </r>
       <r>    0.1524    1.0000 </r>
       <r>    0.1579    1.0000 </r>
       <r>    0.1582    1.0000 </r>
       <r>    0.1595    1.0000 </r>
       <r>    0.1597    1.0000 </r>
       <r>    0.2007    1.0000 </r>
       <r>    0.2009    1.0000 </r>
       <r>    0.2010    1.0000 </r>
       <r>    0.2012    1.0000 </r>
       <r>    0.2367    1.0000 </r>
       <r>    0.2368    1.0000 </r>
       <r>    0.2566    1.0000 </r>
       <r>    0.2568    1.0000 </r>
       <r>    0.2820    1.0000 </r>
       <r>    0.3008    1.0000 </r>
       <r>    0.3010    1.0000 </r>
       <r>    0.3229    1.0000 </r>
       <r>    0.4471    1.0000 </r>
       <r>    0.4473    1.0000 </r>
       <r>    0.4506    1.0000 </r>
       <r>    0.4510    1.0000 </r>
       <r>    0.4571    1.0000 </r>
       <r>    0.4573    1.0000 </r>
       <r>    0.4655    1.0000 </r>
       <r>    0.4657    1.0000 </r>
       <r>    0.4658    1.0000 </r>
       <r>    0.4660    1.0000 </r>
       <r>    0.4699    1.0000 </r>
       <r>    0.4701    1.0000 </r>
       <r>    0.4701    1.0000 </r>
       <r>    0.4702    1.0000 </r>
       <r>    0.5113    1.0000 </r>
       <r>    0.5115    1.0000 </r>
       <r>    0.5258    1.0000 </r>
       <r>    0.5264    1.0000 </r>
       <r>    0.5264    1.0000 </r>
       <r>    0.5264    1.0000 </r>
       <r>    0.5972    1.0000 </r>
       <r>    0.6017    1.0000 </r>
       <r>    0.6547    1.0000 </r>
       <r>    0.6549    1.0000 </r>
       <r>    0.6551    1.0000 </r>
       <r>    0.6553    1.0000 </r>
       <r>    0.6615    1.0000 </r>
       <r>    0.6618    1.0000 </r>
       <r>    0.6877    1.0000 </r>
       <r>    0.6879    1.0000 </r>
       <r>    0.7016    1.0000 </r>
       <r>    0.7018    1.0000 </r>
       <r>    0.7019    1.0000 </r>
       <r>    0.7022    1.0000 </r>
       <r>    0.7207    1.0000 </r>
       <r>    0.7208    1.0000 </r>
       <r>    0.7410    1.0000 </r>
       <r>    0.7413    1.0000 </r>
       <r>    0.7485    1.0000 </r>
       <r>    0.8023    1.0000 </r>
       <r>    0.8142    1.0000 </r>
       <r>    0.8143    1.0000 </r>
       <r>    0.8144    1.0000 </r>
       <r>    0.8146    1.0000 </r>
       <r>    0.8301    1.0000 </r>
       <r>    0.8304    1.0000 </r>
       <r>    0.8305    1.0000 </r>
       <r>    0.8310    1.0000 </r>
       <r>    0.8515    1.0000 </r>
       <r>    0.8519    1.0000 </r>
       <r>    0.8520    1.0000 </r>
       <r>    0.8521    1.0000 </r>
       <r>    0.8521    1.0000 </r>
       <r>    0.8522    1.0000 </r>
       <r>    0.8522    1.0000 </r>
       <r>    0.8524    1.0000 </r>
       <r>    0.8952    1.0000 </r>
       <r>    0.8978    1.0000 </r>
       <r>    0.8979    1.0000 </r>
       <r>    0.8991    1.0000 </r>
       <r>    0.8994    1.0000 </r>
       <r>    0.8995    1.0000 </r>
       <r>    0.8996    1.0000 </r>
       <r>    0.9205    1.0000 </r>
       <r>    0.9457    1.0000 </r>
       <r>    0.9460    1.0000 </r>
       <r>    1.0705    1.0000 </r>
       <r>    1.0709    1.0000 </r>
       <r>    1.0710    1.0000 </r>
       <r>    1.0710    1.0000 </r>
       <r>    1.0846    1.0000 </r>
       <r>    1.0847    1.0000 </r>
       <r>    1.0848    1.0000 </r>
       <r>    1.0848    1.0000 </r>
       <r>    1.0850    1.0000 </r>
       <r>    1.0852    1.0000 </r>
       <r>    1.1009    1.0000 </r>
       <r>    1.1011    1.0000 </r>
       <r>    1.1455    1.0000 </r>
       <r>    1.1459    1.0000 </r>
       <r>    1.1460    1.0000 </r>
       <r>    1.1461    1.0000 </r>
       <r>    1.1618    1.0000 </r>
       <r>    1.1619    1.0000 </r>
       <r>    1.1620    1.0000 </r>
       <r>    1.1622    1.0000 </r>
       <r>    1.1757    1.0000 </r>
       <r>    1.1759    1.0000 </r>
       <r>    1.1996    1.0000 </r>
       <r>    1.2240    1.0000 </r>
       <r>    1.2243    1.0000 </r>
       <r>    1.2293    1.0000 </r>
       <r>    1.2299    1.0000 </r>
       <r>    1.2299    1.0000 </r>
       <r>    1.2299    1.0000 </r>
       <r>    1.2300    1.0000 </r>
       <r>    1.2300    1.0000 </r>
       <r>    1.2301    1.0000 </r>
       <r>    1.2302    1.0000 </r>
       <r>    1.2370    1.0000 </r>
       <r>    1.2372    1.0000 </r>
       <r>    1.3413    1.0000 </r>
       <r>    1.3415    1.0000 </r>
       <r>    1.3415    1.0000 </r>
       <r>    1.3416    1.0000 </r>
       <r>    1.3652    1.0000 </r>
       <r>    1.3663    1.0000 </r>
       <r>    1.3665    1.0000 </r>
       <r>    1.3671    1.0000 </r>
       <r>    1.3672    1.0000 </r>
       <r>    1.3733    1.0000 </r>
       <r>    1.3734    1.0000 </r>
       <r>    1.3735    1.0000 </r>
       <r>    1.3738    1.0000 </r>
       <r>    1.3778    1.0000 </r>
       <r>    1.3780    1.0000 </r>
       <r>    1.3953    1.0000 </r>
       <r>    1.3954    1.0000 </r>
       <r>    1.3955    1.0000 </r>
       <r>    1.3957    1.0000 </r>
       <r>    1.3961    1.0000 </r>
       <r>    1.4059    1.0000 </r>
       <r>    1.4202    1.0000 </r>
       <r>    1.4204    1.0000 </r>
       <r>    1.4366    1.0000 </r>
       <r>    1.4367    1.0000 </r>
       <r>    1.4409    1.0000 </r>
       <r>    1.4461    1.0000 </r>
       <r>    1.4514    1.0000 </r>
       <r>    1.4517    1.0000 </r>
       <r>    1.4567    1.0000 </r>
       <r>    1.4571    1.0000 </r>
       <r>    1.4571    1.0000 </r>
       <r>    1.4571    1.0000 </r>
       <r>    1.4914    1.0000 </r>
       <r>    1.4915    1.0000 </r>
       <r>    1.5272    1.0000 </r>
[...]
       <r>    -1.7754     0.0000    96.0000 </r>
       <r>    -1.7037     0.0000    96.0000 </r>
       <r>    -1.6321     0.0000    96.0000 </r>
       <r>    -1.5604     0.0000    96.0000 </r>
       <r>    -1.4887     0.0000    96.0000 </r>
       <r>    -1.4170     0.0000    96.0000 </r>
       <r>    -1.3454     0.0000    96.0000 </r>
       <r>    -1.2737     0.0000    96.0000 </r>
       <r>    -1.2020     0.0000    96.0000 </r>
       <r>    -1.1303     0.0000    96.0000 </r>
       <r>    -1.0587     0.0000    96.0000 </r>
       <r>    -0.9870     0.0000    96.0000 </r>
       <r>    -0.9153     0.0000    96.0000 </r>
       <r>    -0.8436     0.0000    96.0000 </r>
       <r>    -0.7720     0.0000    96.0000 </r>
       <r>    -0.7003     0.0000    96.0000 </r>
       <r>    -0.6286     0.0000    96.0000 </r>
       <r>    -0.5569     0.0000    96.0000 </r>
       <r>    -0.4852     0.0001    96.0000 </r>
       <r>    -0.4136     0.0985    96.0071 </r>
       <r>    -0.3419     1.8132    96.1370 </r>
       <r>    -0.2702     1.8520    96.2698 </r>
       <r>    -0.1985     8.6276    96.8882 </r>
       <r>    -0.1269    15.3647    97.9895 </r>
       <r>    -0.0552    24.6501    99.7563 </r>
       <r>     0.0165    51.9594   103.4805 </r>
       <r>     0.0882   104.4013   110.9636 </r>
       <r>     0.1598   189.3958   124.5388 </r>
       <r>     0.2315   207.2114   139.3909 </r>
       <r>     0.3032   273.8917   159.0224 </r>
       <r>     0.3749   191.3368   172.7367 </r>
       <r>     0.4465   124.2980   181.6459 </r>
       <r>     0.5182   141.0710   191.7573 </r>
       <r>     0.5899   123.7364   200.6263 </r>
       <r>     0.6616   168.9498   212.7360 </r>
       <r>     0.7332   245.7585   230.3510 </r>
       <r>     0.8049   229.1540   246.7759 </r>
       <r>     0.8766   293.4517   267.8094 </r>
       <r>     0.9483   282.2131   288.0373 </r>
       <r>     1.0200   144.4553   298.3913 </r>
       <r>     1.0916   186.0853   311.7292 </r>
       <r>     1.1633   227.2185   328.0154 </r>
       <r>     1.2350   230.7442   344.5542 </r>
       <r>     1.3067   298.4336   365.9448 </r>
       <r>     1.3783   308.7329   388.0736 </r>
       <r>     1.4500   392.1238   416.1795 </r>
       <r>     1.5217   354.5681   441.5936 </r>
       <r>     1.5934   373.3218   468.3519 </r>
       <r>     1.6650   365.1403   494.5237 </r>
       <r>     1.7367   392.2779   522.6407 </r>
       <r>     1.8084   371.4088   549.2619 </r>
       <r>     1.8801   358.5444   574.9610 </r>
       <r>     1.9517   390.1639   602.9264 </r>
       <r>     2.0234   414.4911   632.6356 </r>
       <r>     2.0951   377.0462   659.6608 </r>
       <r>     2.1668   361.6602   685.5832 </r>
       <r>     2.2384   375.4515   712.4941 </r>
       <r>     2.3101   396.2446   740.8954 </r>
       <r>     2.3818   336.7215   765.0303 </r>
       <r>     2.4535   295.9228   786.2409 </r>
       <r>     2.5252   340.4329   810.6418 </r>
       <r>     2.5968   356.8443   836.2191 </r>
       <r>     2.6685   409.0706   865.5397 </r>
       <r>     2.7402   372.3263   892.2266 </r>
       <r>     2.8119   382.1217   919.6156 </r>
       <r>     2.8835   433.3602   950.6772 </r>
       <r>     2.9552   501.8430   986.6474 </r>
       <r>     3.0269   493.6374  1022.0295 </r>
       <r>     3.0986   362.9674  1048.0456 </r>
       <r>     3.1702   230.6868  1064.5803 </r>
       <r>     3.2419   204.5347  1079.2406 </r>
       <r>     3.3136   169.3858  1091.3815 </r>
       <r>     3.3853   136.0807  1101.1352 </r>
       <r>     3.4569   120.8952  1109.8006 </r>
       <r>     3.5286   158.8548  1121.1867 </r>
       <r>     3.6003   161.0699  1132.7315 </r>
       <r>     3.6720    99.5566  1139.8674 </r>
       <r>     3.7436    96.6854  1146.7974 </r>
       <r>     3.8153    63.5394  1151.3517 </r>
       <r>     3.8870    73.5245  1156.6216 </r>
       <r>     3.9587    72.2647  1161.8013 </r>
       <r>     4.0304    66.6921  1166.5815 </r>
       <r>     4.1020    91.8959  1173.1682 </r>
       <r>     4.1737   105.9772  1180.7643 </r>
       <r>     4.2454   112.0135  1188.7930 </r>
       <r>     4.3171    74.1943  1194.1110 </r>
       <r>     4.3887    73.1450  1199.3537 </r>
       <r>     4.4604    65.6602  1204.0600 </r>
       <r>     4.5321    93.1235  1210.7347 </r>
       <r>     4.6038    93.1829  1217.4137 </r>
       <r>     4.6754   103.1954  1224.8104 </r>
       <r>     4.7471   142.2075  1235.0032 </r>
       <r>     4.8188   135.1730  1244.6919 </r>
       <r>     4.8905    69.7814  1249.6936 </r>
       <r>     4.9621    53.9243  1253.5587 </r>
       <r>     5.0338    55.2899  1257.5216 </r>
       <r>     5.1055    90.0439  1263.9756 </r>
       <r>     5.1772   145.6117  1274.4125 </r>
       <r>     5.2488   104.9135  1281.9323 </r>
       <r>     5.3205    62.0085  1286.3769 </r>
       <r>     5.3922    61.0076  1290.7497 </r>
       <r>     5.4639    68.2644  1295.6426 </r>
       <r>     5.5356    73.2819  1300.8952 </r>
       <r>     5.6072    76.8816  1306.4057 </r>
       <r>     5.6789   113.7905  1314.5618 </r>
       <r>     5.7506   129.4188  1323.8380 </r>
       <r>     5.8223    71.1111  1328.9350 </r>
       <r>     5.8939    64.6524  1333.5690 </r>
       <r>     5.9656    57.0254  1337.6564 </r>
       <r>     6.0373    29.4933  1339.7704 </r>
       <r>     6.1090    18.6592  1341.1078 </r>
       <r>     6.1806    21.6151  1342.6571 </r>
       <r>     6.2523    16.5425  1343.8428 </r>
       <r>     6.3240     8.3847  1344.4438 </r>
       <r>     6.3957     0.7814  1344.4998 </r>
       <r>     6.4673     0.1489  1344.5104 </r>
       <r>     6.5390     2.0076  1344.6543 </r>
       <r>     6.6107     1.7256  1344.7780 </r>
       <r>     6.6824     5.9848  1345.2070 </r>
       <r>     6.7540    23.8877  1346.9192 </r>
       <r>     6.8257    25.3760  1348.7380 </r>
       <r>     6.8974    10.5335  1349.4930 </r>
       <r>     6.9691     6.3481  1349.9480 </r>
       <r>     7.0408     8.9006  1350.5860 </r>
       <r>     7.1124     4.8410  1350.9330 </r>
       <r>     7.1841    22.5256  1352.5475 </r>
       <r>     7.2558    24.1239  1354.2766 </r>
       <r>     7.3275    27.6670  1356.2597 </r>
       <r>     7.3991    32.3275  1358.5768 </r>
       <r>     7.4708    29.9890  1360.7263 </r>
       <r>     7.5425    64.0260  1365.3155 </r>
       <r>     7.6142    68.3662  1370.2157 </r>
       <r>     7.6858    26.3675  1372.1056 </r>
       <r>     7.7575    57.1054  1376.1987 </r>
       <r>     7.8292    69.7981  1381.2016 </r>
       <r>     7.9009    73.0401  1386.4368 </r>
       <r>     7.9725    76.2953  1391.9054 </r>
       <r>     8.0442    63.4788  1396.4553 </r>
       <r>     8.1159    33.5121  1398.8573 </r>
       <r>     8.1876    17.7617  1400.1304 </r>
       <r>     8.2592     7.8215  1400.6910 </r>
       <r>     8.3309    12.0421  1401.5541 </r>
       <r>     8.4026    52.1987  1405.2955 </r>
       <r>     8.4743    32.0730  1407.5944 </r>
       <r>     8.5460    34.9462  1410.0992 </r>
       <r>     8.6176    98.7549  1417.1776 </r>
       <r>     8.6893   101.3241  1424.4401 </r>
       <r>     8.7610    57.7232  1428.5775 </r>
       <r>     8.8327    50.0383  1432.1641 </r>
       <r>     8.9043    33.6498  1434.5759 </r>
       <r>     8.9760    45.8608  1437.8631 </r>
       <r>     9.0477    29.1035  1439.9491 </r>
       <r>     9.1194    21.7107  1441.5052 </r>
       <r>     9.1910     9.9340  1442.2173 </r>
       <r>     9.2627    18.4363  1443.5387 </r>
       <r>     9.3344    55.2182  1447.4965 </r>
       <r>     9.4061    49.0158  1451.0098 </r>
       <r>     9.4777    54.0434  1454.8834 </r>
       <r>     9.5494    37.7318  1457.5879 </r>
       <r>     9.6211    51.5965  1461.2861 </r>
       <r>     9.6928    50.2739  1464.8896 </r>
       <r>     9.7644    47.0025  1468.2585 </r>
       <r>     9.8361    54.5047  1472.1652 </r>
       <r>     9.9078    75.3761  1477.5679 </r>
       <r>     9.9795    57.4284  1481.6841 </r>
       <r>    10.0512   111.6195  1489.6846 </r>
       <r>    10.1228   115.4575  1497.9602 </r>
       <r>    10.1945    38.7913  1500.7406 </r>
       <r>    10.2662    30.0634  1502.8954 </r>
       <r>    10.3379    48.8889  1506.3996 </r>
       <r>    10.4095    59.2517  1510.6465 </r>
       <r>    10.4812    90.8057  1517.1551 </r>
       <r>    10.5529   112.2482  1525.2006 </r>
       <r>    10.6246   110.2893  1533.1057 </r>
       <r>    10.6962    92.1517  1539.7108 </r>
       <r>    10.7679    80.1051  1545.4524 </r>
       <r>    10.8396   108.1900  1553.2071 </r>
       <r>    10.9113    86.9032  1559.4360 </r>
       <r>    10.9829    63.8292  1564.0110 </r>
       <r>    11.0546    33.3898  1566.4043 </r>
       <r>    11.1263    58.0352  1570.5640 </r>
       <r>    11.1980    49.6220  1574.1207 </r>
       <r>    11.2696    46.9177  1577.4836 </r>
       <r>    11.3413    83.5118  1583.4694 </r>
       <r>    11.4130    51.3705  1587.1514 </r>
       <r>    11.4847    57.4363  1591.2683 </r>
       <r>    11.5563    88.9171  1597.6415 </r>
       <r>    11.6280    66.2210  1602.3880 </r>
       <r>    11.6997    43.6529  1605.5168 </r>
       <r>    11.7714    10.9260  1606.3000 </r>
       <r>    11.8431    15.7995  1607.4324 </r>
       <r>    11.9147    36.8348  1610.0726 </r>
       <r>    11.9864    19.1016  1611.4417 </r>
       <r>    12.0581     2.8292  1611.6445 </r>
       <r>    12.1298     4.4387  1611.9626 </r>
       <r>    12.2014     0.5191  1611.9999 </r>
       <r>    12.2731     0.0020  1612.0000 </r>
       <r>    12.3448     0.0000  1612.0000 </r>
       <r>    12.4165     0.0000  1612.0000 </r>
       <r>    12.4881     0.0000  1612.0000 </r>
       <r>    12.5598     0.0000  1612.0000 </r>
       <r>    12.6315     0.0000  1612.0000 </r>
       <r>    12.7032     0.0000  1612.0000 </r>
       <r>    12.7748     0.0000  1612.0000 </r>
       <r>    12.8465     0.0000  1612.0000 </r>
       <r>    12.9182     0.0000  1612.0000 </r>
       <r>    12.9899     0.0000  1612.0000 </r>
       <r>    13.0615     0.0000  1612.0000 </r>
      </set>
     </set>
    </array>
   </total>
  </dos>
 </calculation>
 <structure name="finalpos" >
  <crystal>
   <varray name="basis" >
    <v>      14.01039598       0.00139138       0.00000000 </v>
    <v>      -0.00150196      13.76691092       0.00000000 </v>
    <v>       0.00000000       0.00000000      14.55019386 </v>
   </varray>
   <i name="volume">   2806.43958022 </i>
   <varray name="rec_basis" >
    <v>       0.07137557       0.00000779       0.00000000 </v>
    <v>      -0.00000721       0.07263794       0.00000000 </v>
    <v>       0.00000000       0.00000000       0.06872761 </v>
   </varray>
  </crystal>
  <varray name="positions" >
   <v>       0.42987898       0.17167077       0.33247735 </v>
   <v>       0.92987898       0.17167077       0.33247735 </v>
   <v>       0.42987898       0.67167077       0.33247735 </v>
   <v>       0.92987898       0.67167077       0.33247735 </v>
   <v>       0.42987898       0.17167077       0.66581068 </v>
   <v>       0.92987898       0.17167077       0.66581068 </v>
   <v>       0.42987898       0.67167077       0.66581068 </v>
   <v>       0.92987898       0.67167077       0.66581068 </v>
   <v>       0.42987898       0.17167077       0.99914401 </v>
   <v>       0.92987898       0.17167077       0.99914401 </v>
   <v>       0.42987898       0.67167077       0.99914401 </v>
   <v>       0.92987898       0.67167077       0.99914401 </v>
   <v>       0.07012102       0.32832923       0.33247735 </v>
   <v>       0.57012102       0.32832923       0.33247735 </v>
   <v>       0.07012102       0.82832923       0.33247735 </v>
   <v>       0.57012102       0.82832923       0.33247735 </v>
   <v>       0.07012102       0.32832923       0.66581068 </v>
   <v>       0.57012102       0.32832923       0.66581068 </v>
   <v>       0.07012102       0.82832923       0.66581068 </v>
   <v>       0.57012102       0.82832923       0.66581068 </v>
   <v>       0.07012102       0.32832923       0.99914401 </v>
   <v>       0.57012102       0.32832923       0.99914401 </v>
   <v>       0.07012102       0.82832923       0.99914401 </v>
   <v>       0.57012102       0.82832923       0.99914401 </v>
   <v>       0.32012053       0.42094729       0.05641075 </v>
   <v>       0.82012053       0.42167367       0.05641075 </v>
   <v>       0.32012053       0.92167367       0.05641075 </v>
   <v>       0.82012053       0.92167367       0.05641075 </v>
   <v>       0.32012053       0.42167367       0.38974408 </v>
   <v>       0.82012053       0.42167367       0.38974408 </v>
   <v>       0.32012053       0.92167367       0.38974408 </v>
   <v>       0.82012053       0.92167367       0.38974408 </v>
   <v>       0.32012053       0.42167367       0.72307741 </v>
   <v>       0.82012053       0.42167367       0.72307741 </v>
   <v>       0.32012053       0.92167367       0.72307741 </v>
   <v>       0.82012053       0.92167367       0.72307741 </v>
   <v>       0.17987947       0.07832633       0.05641075 </v>
   <v>       0.67987947       0.07832633       0.05641075 </v>
   <v>       0.17987947       0.57832633       0.05641075 </v>
   <v>       0.67987947       0.57832633       0.05641075 </v>
   <v>       0.17987947       0.07832633       0.38974408 </v>
   <v>       0.67987947       0.07832633       0.38974408 </v>
   <v>       0.17987947       0.57832633       0.38974408 </v>
   <v>       0.67987947       0.57832633       0.38974408 </v>
   <v>       0.17987947       0.07832633       0.72307741 </v>
   <v>       0.67987947       0.07832633       0.72307741 </v>
   <v>       0.17987947       0.57832633       0.72307741 </v>
   <v>       0.67987947       0.57832633       0.72307741 </v>
   <v>       0.17987776       0.32832369       0.16580856 </v>
   <v>       0.67987776       0.32832369       0.16580856 </v>
   <v>       0.17987776       0.82832369       0.16580856 </v>
   <v>       0.67987776       0.82832369       0.16580856 </v>
   <v>       0.17987776       0.32832369       0.49914189 </v>
   <v>       0.67987776       0.32832369       0.49914189 </v>
   <v>       0.17987776       0.82832369       0.49914189 </v>
   <v>       0.67987776       0.82832369       0.49914189 </v>
   <v>       0.17987776       0.32832369       0.83247522 </v>
   <v>       0.67987776       0.32832369       0.83247522 </v>
   <v>       0.17987776       0.82832369       0.83247522 </v>
   <v>       0.67987776       0.82832369       0.83247522 </v>
   <v>       0.32012224       0.17167631       0.16580856 </v>
   <v>       0.82012224       0.17167631       0.16580856 </v>
   <v>       0.32012224       0.67167631       0.16580856 </v>
   <v>       0.82012224       0.67167631       0.16580856 </v>
   <v>       0.32012224       0.17167631       0.49914189 </v>
   <v>       0.82012224       0.17167631       0.49914189 </v>
   <v>       0.32012224       0.67167631       0.49914189 </v>
   <v>       0.82012224       0.67167631       0.49914189 </v>
   <v>       0.32012224       0.17167631       0.83247522 </v>
   <v>       0.82012224       0.17167631       0.83247522 </v>
   <v>       0.32012224       0.67167631       0.83247522 </v>
   <v>       0.82012224       0.67167631       0.83247522 </v>
   <v>       0.42987656       0.42167494       0.22308000 </v>
   <v>       0.92987656       0.42167494       0.22308000 </v>
   <v>       0.42987656       0.92167494       0.22308000 </v>
   <v>       0.92987656       0.92167494       0.22308000 </v>
   <v>       0.42987656       0.42167494       0.55641333 </v>
   <v>       0.92987656       0.42167494       0.55641333 </v>
   <v>       0.42987656       0.92167494       0.55641333 </v>
   <v>       0.92987656       0.92167494       0.55641333 </v>
   <v>       0.42987656       0.42167494       0.88974666 </v>
   <v>       0.92987656       0.42167494       0.88974666 </v>
   <v>       0.42987656       0.92167494       0.88974666 </v>
   <v>       0.92987656       0.92167494       0.88974666 </v>
   <v>       0.07012344       0.07832506       0.22308000 </v>
   <v>       0.57012344       0.07832506       0.22308000 </v>
   <v>       0.07012344       0.57832506       0.22308000 </v>
   <v>       0.57012344       0.57832506       0.22308000 </v>
   <v>       0.07012344       0.07832506       0.55641333 </v>
   <v>       0.57012344       0.07832506       0.55641333 </v>
   <v>       0.07012344       0.57832506       0.55641333 </v>
   <v>       0.57012344       0.57832506       0.55641333 </v>
   <v>       0.07012344       0.07832506       0.88974666 </v>
   <v>       0.57012344       0.07832506       0.88974666 </v>
   <v>       0.07012344       0.57832506       0.88974666 </v>
   <v>       0.57012344       0.57832506       0.88974666 </v>
   <v>       0.00000000       0.00000000       0.05479365 </v>
   <v>       0.50000000       0.00000000       0.05479365 </v>
   <v>       0.00000000       0.50000000       0.05479365 </v>
   <v>       0.50000000       0.50000000       0.05479365 </v>
   <v>       0.00000000       0.00000000       0.38812698 </v>
   <v>       0.50000000       0.00000000       0.38812698 </v>
   <v>       0.00000000       0.50000000       0.38812698 </v>
   <v>       0.50000000       0.50000000       0.38812698 </v>
   <v>       0.00000000       0.00000000       0.72146032 </v>
   <v>       0.50000000       0.00000000       0.72146032 </v>
   <v>       0.00000000       0.50000000       0.72146032 </v>
   <v>       0.50000000       0.50000000       0.72146032 </v>
   <v>       0.25000000       0.00000000       0.22145206 </v>
   <v>       0.75000000       0.00000000       0.22145206 </v>
   <v>       0.25000000       0.50000000       0.22145206 </v>
   <v>       0.75000000       0.50000000       0.22145206 </v>
   <v>       0.25000000       0.00000000       0.55478539 </v>
   <v>       0.75000000       0.00000000       0.55478539 </v>
   <v>       0.25000000       0.50000000       0.55478539 </v>
   <v>       0.75000000       0.50000000       0.55478539 </v>
   <v>       0.25000000       0.00000000       0.88811873 </v>
   <v>       0.75000000       0.00000000       0.88811873 </v>
   <v>       0.25000000       0.50000000       0.88811873 </v>
   <v>       0.75000000       0.50000000       0.88811873 </v>
   <v>       0.00000000       0.25000000       0.16743769 </v>
   <v>       0.50000000       0.25000000       0.16743769 </v>
   <v>       0.00000000       0.75000000       0.16743769 </v>
   <v>       0.50000000       0.75000000       0.16743769 </v>
   <v>       0.00000000       0.25000000       0.50077102 </v>
   <v>       0.50000000       0.25000000       0.50077102 </v>
   <v>       0.00000000       0.75000000       0.50077102 </v>
   <v>       0.50000000       0.75000000       0.50077102 </v>
   <v>       0.00000000       0.25000000       0.83410435 </v>
   <v>       0.50000000       0.25000000       0.83410435 </v>
   <v>       0.00000000       0.75000000       0.83410435 </v>
   <v>       0.50000000       0.75000000       0.83410435 </v>
   <v>       0.25000000       0.25000000       0.00076332 </v>
   <v>       0.75000000       0.25000000       0.00076332 </v>
   <v>       0.25000000       0.75000000       0.00076332 </v>
   <v>       0.75000000       0.75000000       0.00076332 </v>
   <v>       0.25000000       0.25000000       0.33409665 </v>
   <v>       0.75000000       0.25000000       0.33409665 </v>
   <v>       0.25000000       0.75000000       0.33409665 </v>
   <v>       0.75000000       0.75000000       0.33409665 </v>
   <v>       0.25000000       0.25000000       0.66742999 </v>
   <v>       0.75000000       0.25000000       0.66742999 </v>
   <v>       0.25000000       0.75000000       0.66742999 </v>
   <v>       0.75000000       0.75000000       0.66742999 </v>
  </varray>
 </structure>
</modeling>
