 192 192   0   0
  0.1931523E+02  0.1767436E-08  0.1377516E-08  0.1580299E-08  0.5000000E-15
  1.000000000000000E-004
  CAR 
 unknown system                          
     13.17861397     -8.37167128  301      6.46164218      1.00000000
     -8.372  0.0000E+00  0.0000E+00
     -8.300  0.0000E+00  0.0000E+00
     -8.228  0.0000E+00  0.0000E+00
     -8.156  0.0000E+00  0.0000E+00
     -8.084  0.0000E+00  0.0000E+00
     -8.012  0.0000E+00  0.0000E+00
     -7.941  0.0000E+00  0.0000E+00
     -7.869  0.0000E+00  0.0000E+00
     -7.797  0.0000E+00  0.0000E+00
     -7.725  0.0000E+00  0.0000E+00
     -7.653  0.2589E-12  0.1860E-13
     -7.581  0.1477E-06  0.1061E-07
     -7.510  0.1546E-02  0.1111E-03
     -7.438  0.3657E+00  0.2638E-01
     -7.366  0.5491E+01  0.4208E+00
     -7.294  0.2301E+02  0.2074E+01
     -7.222  0.4304E+02  0.5166E+01
     -7.150  0.5043E+02  0.8788E+01
     -7.079  0.7165E+02  0.1394E+02
     -7.007  0.1043E+03  0.2143E+02
     -6.935  0.1350E+03  0.3113E+02
     -6.863  0.2023E+03  0.4566E+02
     -6.791  0.2959E+03  0.6692E+02
     -6.719  0.3590E+03  0.9270E+02
     -6.648  0.2850E+03  0.1132E+03
     -6.576  0.1759E+03  0.1258E+03
     -6.504  0.3001E+02  0.1280E+03
     -6.432  0.4571E+00  0.1280E+03
     -6.360  0.2615E-03  0.1280E+03
     -6.288  0.3441E-08  0.1280E+03
     -6.217  0.0000E+00  0.1280E+03
     -6.145  0.0000E+00  0.1280E+03
     -6.073  0.0000E+00  0.1280E+03
     -6.001  0.0000E+00  0.1280E+03
     -5.929  0.0000E+00  0.1280E+03
     -5.857  0.0000E+00  0.1280E+03
     -5.786  0.0000E+00  0.1280E+03
     -5.714  0.0000E+00  0.1280E+03
     -5.642  0.0000E+00  0.1280E+03
     -5.570  0.0000E+00  0.1280E+03
     -5.498  0.0000E+00  0.1280E+03
     -5.426  0.0000E+00  0.1280E+03
     -5.355  0.0000E+00  0.1280E+03
     -5.283  0.0000E+00  0.1280E+03
     -5.211  0.0000E+00  0.1280E+03
     -5.139  0.0000E+00  0.1280E+03
     -5.067  0.0000E+00  0.1280E+03
     -4.995  0.0000E+00  0.1280E+03
     -4.924  0.0000E+00  0.1280E+03
     -4.852  0.0000E+00  0.1280E+03
     -4.780  0.0000E+00  0.1280E+03
     -4.708  0.0000E+00  0.1280E+03
     -4.636  0.0000E+00  0.1280E+03
     -4.564  0.0000E+00  0.1280E+03
     -4.493  0.0000E+00  0.1280E+03
     -4.421  0.0000E+00  0.1280E+03
     -4.349  0.0000E+00  0.1280E+03
     -4.277  0.0000E+00  0.1280E+03
     -4.205  0.0000E+00  0.1280E+03
     -4.133  0.0000E+00  0.1280E+03
     -4.062  0.0000E+00  0.1280E+03
     -3.990  0.0000E+00  0.1280E+03
     -3.918  0.0000E+00  0.1280E+03
     -3.846  0.0000E+00  0.1280E+03
     -3.774  0.0000E+00  0.1280E+03
     -3.702  0.0000E+00  0.1280E+03
     -3.631  0.0000E+00  0.1280E+03
     -3.559  0.0000E+00  0.1280E+03
     -3.487  0.0000E+00  0.1280E+03
     -3.415  0.0000E+00  0.1280E+03
     -3.343  0.0000E+00  0.1280E+03
     -3.271  0.0000E+00  0.1280E+03
     -3.200  0.0000E+00  0.1280E+03
     -3.128  0.0000E+00  0.1280E+03
     -3.056  0.0000E+00  0.1280E+03
     -2.984  0.0000E+00  0.1280E+03
     -2.912  0.0000E+00  0.1280E+03
     -2.840  0.0000E+00  0.1280E+03
     -2.769  0.0000E+00  0.1280E+03
     -2.697  0.0000E+00  0.1280E+03
     -2.625  0.0000E+00  0.1280E+03
     -2.553  0.0000E+00  0.1280E+03
     -2.481  0.0000E+00  0.1280E+03
     -2.409  0.0000E+00  0.1280E+03
     -2.338  0.0000E+00  0.1280E+03
     -2.266  0.0000E+00  0.1280E+03
     -2.194  0.0000E+00  0.1280E+03
     -2.122  0.0000E+00  0.1280E+03
     -2.050  0.0000E+00  0.1280E+03
     -1.978  0.0000E+00  0.1280E+03
     -1.907  0.0000E+00  0.1280E+03
     -1.835  0.0000E+00  0.1280E+03
     -1.763  0.0000E+00  0.1280E+03
     -1.691  0.0000E+00  0.1280E+03
     -1.619  0.0000E+00  0.1280E+03
     -1.547  0.0000E+00  0.1280E+03
     -1.476  0.0000E+00  0.1280E+03
     -1.404  0.0000E+00  0.1280E+03
     -1.332  0.0000E+00  0.1280E+03
     -1.260  0.0000E+00  0.1280E+03
     -1.188  0.0000E+00  0.1280E+03
     -1.116  0.0000E+00  0.1280E+03
     -1.045  0.0000E+00  0.1280E+03
     -0.973  0.0000E+00  0.1280E+03
     -0.901  0.0000E+00  0.1280E+03
     -0.829  0.0000E+00  0.1280E+03
     -0.757  0.0000E+00  0.1280E+03
     -0.685  0.0000E+00  0.1280E+03
     -0.614  0.0000E+00  0.1280E+03
     -0.542  0.0000E+00  0.1280E+03
     -0.470  0.3522E-12  0.1280E+03
     -0.398  0.2224E-06  0.1280E+03
     -0.326  0.2566E-02  0.1280E+03
     -0.254  0.6386E+00  0.1280E+03
     -0.183  0.6563E+01  0.1285E+03
     -0.111  0.1552E+02  0.1296E+03
     -0.039  0.5079E+02  0.1333E+03
      0.033  0.5021E+02  0.1369E+03
      0.105  0.8014E+02  0.1426E+03
      0.177  0.2316E+03  0.1593E+03
      0.248  0.2675E+03  0.1785E+03
      0.320  0.2109E+03  0.1936E+03
      0.392  0.2452E+03  0.2113E+03
      0.464  0.2886E+03  0.2320E+03
      0.536  0.2050E+03  0.2467E+03
      0.608  0.2018E+03  0.2612E+03
      0.679  0.2088E+03  0.2762E+03
      0.751  0.2267E+03  0.2925E+03
      0.823  0.3010E+03  0.3141E+03
      0.895  0.2868E+03  0.3347E+03
      0.967  0.2673E+03  0.3539E+03
      1.039  0.3230E+03  0.3771E+03
      1.110  0.3080E+03  0.3993E+03
      1.182  0.2808E+03  0.4194E+03
      1.254  0.2351E+03  0.4363E+03
      1.326  0.2562E+03  0.4547E+03
      1.398  0.3420E+03  0.4793E+03
      1.470  0.4252E+03  0.5098E+03
      1.541  0.4105E+03  0.5393E+03
      1.613  0.4523E+03  0.5718E+03
      1.685  0.5255E+03  0.6096E+03
      1.757  0.5213E+03  0.6470E+03
      1.829  0.5067E+03  0.6834E+03
      1.901  0.3769E+03  0.7105E+03
      1.972  0.4656E+03  0.7439E+03
      2.044  0.4357E+03  0.7752E+03
      2.116  0.4854E+03  0.8101E+03
      2.188  0.5447E+03  0.8492E+03
      2.260  0.5739E+03  0.8904E+03
      2.332  0.6228E+03  0.9352E+03
      2.403  0.6669E+03  0.9831E+03
      2.475  0.6010E+03  0.1026E+04
      2.547  0.5491E+03  0.1066E+04
      2.619  0.5609E+03  0.1106E+04
      2.691  0.5787E+03  0.1148E+04
      2.763  0.6529E+03  0.1194E+04
      2.834  0.6860E+03  0.1244E+04
      2.906  0.5373E+03  0.1282E+04
      2.978  0.4645E+03  0.1316E+04
      3.050  0.4668E+03  0.1349E+04
      3.122  0.4426E+03  0.1381E+04
      3.194  0.4307E+03  0.1412E+04
      3.265  0.3302E+03  0.1436E+04
      3.337  0.2233E+03  0.1452E+04
      3.409  0.1792E+03  0.1465E+04
      3.481  0.1893E+03  0.1478E+04
      3.553  0.1919E+03  0.1492E+04
      3.625  0.2040E+03  0.1507E+04
      3.696  0.1721E+03  0.1519E+04
      3.768  0.1124E+03  0.1527E+04
      3.840  0.9328E+02  0.1534E+04
      3.912  0.1062E+03  0.1541E+04
      3.984  0.1186E+03  0.1550E+04
      4.056  0.9496E+02  0.1557E+04
      4.127  0.1113E+03  0.1565E+04
      4.199  0.1538E+03  0.1576E+04
      4.271  0.8808E+02  0.1582E+04
      4.343  0.8937E+02  0.1589E+04
      4.415  0.9367E+02  0.1595E+04
      4.487  0.9713E+02  0.1602E+04
      4.558  0.1554E+03  0.1613E+04
      4.630  0.1043E+03  0.1621E+04
      4.702  0.9611E+02  0.1628E+04
      4.774  0.1117E+03  0.1636E+04
      4.846  0.8219E+02  0.1642E+04
      4.918  0.1155E+03  0.1650E+04
      4.990  0.1728E+03  0.1662E+04
      5.061  0.1120E+03  0.1671E+04
      5.133  0.7223E+02  0.1676E+04
      5.205  0.9046E+02  0.1682E+04
      5.277  0.8013E+02  0.1688E+04
      5.349  0.1312E+03  0.1697E+04
      5.421  0.1443E+03  0.1708E+04
      5.492  0.1071E+03  0.1715E+04
      5.564  0.6935E+02  0.1720E+04
      5.636  0.1063E+03  0.1728E+04
      5.708  0.1483E+03  0.1739E+04
      5.780  0.1474E+03  0.1749E+04
      5.852  0.1036E+03  0.1757E+04
      5.923  0.1249E+03  0.1766E+04
      5.995  0.1077E+03  0.1773E+04
      6.067  0.8373E+02  0.1779E+04
      6.139  0.5449E+02  0.1783E+04
      6.211  0.4236E+02  0.1786E+04
      6.283  0.3446E+02  0.1789E+04
      6.354  0.2817E+02  0.1791E+04
      6.426  0.1124E+02  0.1792E+04
      6.498  0.6174E+01  0.1792E+04
      6.570  0.2219E+01  0.1792E+04
      6.642  0.4863E+01  0.1793E+04
      6.714  0.2438E+01  0.1793E+04
      6.785  0.2009E+01  0.1793E+04
      6.857  0.2897E+01  0.1793E+04
      6.929  0.1340E+02  0.1794E+04
      7.001  0.1467E+02  0.1795E+04
      7.073  0.8848E+01  0.1796E+04
      7.145  0.1343E+02  0.1797E+04
      7.216  0.2878E+02  0.1799E+04
      7.288  0.2793E+02  0.1801E+04
      7.360  0.2039E+02  0.1802E+04
      7.432  0.3313E+02  0.1805E+04
      7.504  0.3612E+02  0.1807E+04
      7.576  0.3957E+02  0.1810E+04
      7.647  0.6323E+02  0.1815E+04
      7.719  0.6629E+02  0.1819E+04
      7.791  0.7611E+02  0.1825E+04
      7.863  0.6882E+02  0.1830E+04
      7.935  0.6226E+02  0.1834E+04
      8.007  0.5975E+02  0.1839E+04
      8.078  0.8142E+02  0.1845E+04
      8.150  0.8095E+02  0.1850E+04
      8.222  0.8365E+02  0.1856E+04
      8.294  0.6781E+02  0.1861E+04
      8.366  0.6945E+02  0.1866E+04
      8.438  0.7630E+02  0.1872E+04
      8.509  0.9210E+02  0.1878E+04
      8.581  0.6405E+02  0.1883E+04
      8.653  0.6456E+02  0.1888E+04
      8.725  0.8254E+02  0.1893E+04
      8.797  0.8217E+02  0.1899E+04
      8.869  0.4878E+02  0.1903E+04
      8.940  0.4735E+02  0.1906E+04
      9.012  0.3905E+02  0.1909E+04
      9.084  0.6258E+02  0.1914E+04
      9.156  0.8631E+02  0.1920E+04
      9.228  0.5608E+02  0.1924E+04
      9.300  0.4886E+02  0.1927E+04
      9.371  0.6310E+02  0.1932E+04
      9.443  0.6567E+02  0.1937E+04
      9.515  0.5914E+02  0.1941E+04
      9.587  0.4300E+02  0.1944E+04
      9.659  0.7943E+02  0.1950E+04
      9.731  0.1140E+03  0.1958E+04
      9.802  0.9861E+02  0.1965E+04
      9.874  0.8314E+02  0.1971E+04
      9.946  0.7533E+02  0.1976E+04
     10.018  0.5674E+02  0.1980E+04
     10.090  0.9244E+02  0.1987E+04
     10.162  0.8601E+02  0.1993E+04
     10.233  0.1064E+03  0.2001E+04
     10.305  0.1108E+03  0.2009E+04
     10.377  0.1110E+03  0.2017E+04
     10.449  0.1070E+03  0.2024E+04
     10.521  0.8954E+02  0.2031E+04
     10.593  0.6873E+02  0.2036E+04
     10.664  0.7862E+02  0.2041E+04
     10.736  0.6492E+02  0.2046E+04
     10.808  0.7112E+02  0.2051E+04
     10.880  0.7449E+02  0.2057E+04
     10.952  0.6395E+02  0.2061E+04
     11.024  0.6213E+02  0.2066E+04
     11.095  0.1065E+03  0.2073E+04
     11.167  0.9151E+02  0.2080E+04
     11.239  0.8889E+02  0.2086E+04
     11.311  0.8771E+02  0.2093E+04
     11.383  0.8621E+02  0.2099E+04
     11.455  0.1193E+03  0.2107E+04
     11.526  0.1247E+03  0.2116E+04
     11.598  0.1173E+03  0.2125E+04
     11.670  0.9127E+02  0.2131E+04
     11.742  0.6579E+02  0.2136E+04
     11.814  0.8823E+02  0.2142E+04
     11.886  0.3449E+02  0.2145E+04
     11.957  0.2575E+02  0.2147E+04
     12.029  0.1201E+02  0.2147E+04
     12.101  0.2022E+02  0.2149E+04
     12.173  0.1001E+02  0.2150E+04
     12.245  0.4573E+01  0.2150E+04
     12.317  0.3908E+00  0.2150E+04
     12.388  0.1574E-02  0.2150E+04
     12.460  0.1481E-06  0.2150E+04
     12.532  0.2589E-12  0.2150E+04
     12.604  0.0000E+00  0.2150E+04
     12.676  0.0000E+00  0.2150E+04
     12.748  0.0000E+00  0.2150E+04
     12.819  0.0000E+00  0.2150E+04
     12.891  0.0000E+00  0.2150E+04
     12.963  0.0000E+00  0.2150E+04
     13.035  0.0000E+00  0.2150E+04
     13.107  0.0000E+00  0.2150E+04
     13.179  0.0000E+00  0.2150E+04
