 192 192   0   0
  0.1931523E+02  0.1767436E-08  0.1377516E-08  0.1580299E-08  0.5000000E-15
  1.000000000000000E-004
  CAR 
 unknown system                          
     13.15358233     -8.37045662  301      6.46170288      1.00000000
     -8.370  0.0000E+00  0.0000E+00
     -8.299  0.0000E+00  0.0000E+00
     -8.227  0.0000E+00  0.0000E+00
     -8.155  0.0000E+00  0.0000E+00
     -8.083  0.0000E+00  0.0000E+00
     -8.012  0.0000E+00  0.0000E+00
     -7.940  0.0000E+00  0.0000E+00
     -7.868  0.0000E+00  0.0000E+00
     -7.796  0.0000E+00  0.0000E+00
     -7.725  0.0000E+00  0.0000E+00
     -7.653  0.2772E-12  0.1989E-13
     -7.581  0.1533E-06  0.1100E-07
     -7.509  0.1571E-02  0.1127E-03
     -7.438  0.3672E+00  0.2646E-01
     -7.366  0.5491E+01  0.4204E+00
     -7.294  0.2299E+02  0.2070E+01
     -7.223  0.4301E+02  0.5155E+01
     -7.151  0.5039E+02  0.8771E+01
     -7.079  0.7150E+02  0.1390E+02
     -7.007  0.1042E+03  0.2137E+02
     -6.936  0.1347E+03  0.3104E+02
     -6.864  0.2017E+03  0.4550E+02
     -6.792  0.2948E+03  0.6665E+02
     -6.720  0.3593E+03  0.9243E+02
     -6.649  0.2861E+03  0.1130E+03
     -6.577  0.1780E+03  0.1257E+03
     -6.505  0.3124E+02  0.1280E+03
     -6.433  0.4989E+00  0.1280E+03
     -6.362  0.3049E-03  0.1280E+03
     -6.290  0.4348E-08  0.1280E+03
     -6.218  0.3869E-15  0.1280E+03
     -6.146  0.0000E+00  0.1280E+03
     -6.075  0.0000E+00  0.1280E+03
     -6.003  0.0000E+00  0.1280E+03
     -5.931  0.0000E+00  0.1280E+03
     -5.859  0.0000E+00  0.1280E+03
     -5.788  0.0000E+00  0.1280E+03
     -5.716  0.0000E+00  0.1280E+03
     -5.644  0.0000E+00  0.1280E+03
     -5.572  0.0000E+00  0.1280E+03
     -5.501  0.0000E+00  0.1280E+03
     -5.429  0.0000E+00  0.1280E+03
     -5.357  0.0000E+00  0.1280E+03
     -5.285  0.0000E+00  0.1280E+03
     -5.214  0.0000E+00  0.1280E+03
     -5.142  0.0000E+00  0.1280E+03
     -5.070  0.0000E+00  0.1280E+03
     -4.998  0.0000E+00  0.1280E+03
     -4.927  0.0000E+00  0.1280E+03
     -4.855  0.0000E+00  0.1280E+03
     -4.783  0.0000E+00  0.1280E+03
     -4.711  0.0000E+00  0.1280E+03
     -4.640  0.0000E+00  0.1280E+03
     -4.568  0.0000E+00  0.1280E+03
     -4.496  0.0000E+00  0.1280E+03
     -4.424  0.0000E+00  0.1280E+03
     -4.353  0.0000E+00  0.1280E+03
     -4.281  0.0000E+00  0.1280E+03
     -4.209  0.0000E+00  0.1280E+03
     -4.137  0.0000E+00  0.1280E+03
     -4.066  0.0000E+00  0.1280E+03
     -3.994  0.0000E+00  0.1280E+03
     -3.922  0.0000E+00  0.1280E+03
     -3.850  0.0000E+00  0.1280E+03
     -3.779  0.0000E+00  0.1280E+03
     -3.707  0.0000E+00  0.1280E+03
     -3.635  0.0000E+00  0.1280E+03
     -3.563  0.0000E+00  0.1280E+03
     -3.492  0.0000E+00  0.1280E+03
     -3.420  0.0000E+00  0.1280E+03
     -3.348  0.0000E+00  0.1280E+03
     -3.276  0.0000E+00  0.1280E+03
     -3.205  0.0000E+00  0.1280E+03
     -3.133  0.0000E+00  0.1280E+03
     -3.061  0.0000E+00  0.1280E+03
     -2.989  0.0000E+00  0.1280E+03
     -2.918  0.0000E+00  0.1280E+03
     -2.846  0.0000E+00  0.1280E+03
     -2.774  0.0000E+00  0.1280E+03
     -2.702  0.0000E+00  0.1280E+03
     -2.631  0.0000E+00  0.1280E+03
     -2.559  0.0000E+00  0.1280E+03
     -2.487  0.0000E+00  0.1280E+03
     -2.415  0.0000E+00  0.1280E+03
     -2.344  0.0000E+00  0.1280E+03
     -2.272  0.0000E+00  0.1280E+03
     -2.200  0.0000E+00  0.1280E+03
     -2.128  0.0000E+00  0.1280E+03
     -2.057  0.0000E+00  0.1280E+03
     -1.985  0.0000E+00  0.1280E+03
     -1.913  0.0000E+00  0.1280E+03
     -1.841  0.0000E+00  0.1280E+03
     -1.770  0.0000E+00  0.1280E+03
     -1.698  0.0000E+00  0.1280E+03
     -1.626  0.0000E+00  0.1280E+03
     -1.555  0.0000E+00  0.1280E+03
     -1.483  0.0000E+00  0.1280E+03
     -1.411  0.0000E+00  0.1280E+03
     -1.339  0.0000E+00  0.1280E+03
     -1.268  0.0000E+00  0.1280E+03
     -1.196  0.0000E+00  0.1280E+03
     -1.124  0.0000E+00  0.1280E+03
     -1.052  0.0000E+00  0.1280E+03
     -0.981  0.0000E+00  0.1280E+03
     -0.909  0.0000E+00  0.1280E+03
     -0.837  0.0000E+00  0.1280E+03
     -0.765  0.0000E+00  0.1280E+03
     -0.694  0.0000E+00  0.1280E+03
     -0.622  0.0000E+00  0.1280E+03
     -0.550  0.0000E+00  0.1280E+03
     -0.478  0.5590E-13  0.1280E+03
     -0.407  0.5616E-07  0.1280E+03
     -0.335  0.1028E-02  0.1280E+03
     -0.263  0.3964E+00  0.1280E+03
     -0.191  0.5590E+01  0.1284E+03
     -0.120  0.1379E+02  0.1294E+03
     -0.048  0.4534E+02  0.1327E+03
      0.024  0.5407E+02  0.1366E+03
      0.096  0.6750E+02  0.1414E+03
      0.167  0.2121E+03  0.1566E+03
      0.239  0.2750E+03  0.1763E+03
      0.311  0.2134E+03  0.1916E+03
      0.383  0.2359E+03  0.2086E+03
      0.454  0.2916E+03  0.2295E+03
      0.526  0.2157E+03  0.2450E+03
      0.598  0.1970E+03  0.2591E+03
      0.670  0.2093E+03  0.2741E+03
      0.741  0.2221E+03  0.2901E+03
      0.813  0.2909E+03  0.3109E+03
      0.885  0.2960E+03  0.3322E+03
      0.957  0.2617E+03  0.3509E+03
      1.028  0.3179E+03  0.3737E+03
      1.100  0.3136E+03  0.3962E+03
      1.172  0.2853E+03  0.4167E+03
      1.244  0.2384E+03  0.4338E+03
      1.315  0.2495E+03  0.4517E+03
      1.387  0.3260E+03  0.4751E+03
      1.459  0.4209E+03  0.5053E+03
      1.531  0.4096E+03  0.5347E+03
      1.602  0.4438E+03  0.5665E+03
      1.674  0.5164E+03  0.6036E+03
      1.746  0.5257E+03  0.6413E+03
      1.818  0.5137E+03  0.6781E+03
      1.889  0.3927E+03  0.7063E+03
      1.961  0.4460E+03  0.7383E+03
      2.033  0.4451E+03  0.7703E+03
      2.105  0.4733E+03  0.8042E+03
      2.176  0.5324E+03  0.8424E+03
      2.248  0.5777E+03  0.8839E+03
      2.320  0.6049E+03  0.9273E+03
      2.392  0.6707E+03  0.9754E+03
      2.463  0.6147E+03  0.1019E+04
      2.535  0.5517E+03  0.1059E+04
      2.607  0.5591E+03  0.1099E+04
      2.679  0.5714E+03  0.1140E+04
      2.750  0.6371E+03  0.1186E+04
      2.822  0.6967E+03  0.1236E+04
      2.894  0.5630E+03  0.1276E+04
      2.966  0.4703E+03  0.1310E+04
      3.037  0.4621E+03  0.1343E+04
      3.109  0.4543E+03  0.1376E+04
      3.181  0.4271E+03  0.1406E+04
      3.253  0.3634E+03  0.1432E+04
      3.324  0.2303E+03  0.1449E+04
      3.396  0.1863E+03  0.1462E+04
      3.468  0.1856E+03  0.1476E+04
      3.540  0.1903E+03  0.1489E+04
      3.611  0.2049E+03  0.1504E+04
      3.683  0.1807E+03  0.1517E+04
      3.755  0.1224E+03  0.1526E+04
      3.826  0.9457E+02  0.1533E+04
      3.898  0.1004E+03  0.1540E+04
      3.970  0.1211E+03  0.1548E+04
      4.042  0.9813E+02  0.1555E+04
      4.113  0.1013E+03  0.1563E+04
      4.185  0.1565E+03  0.1574E+04
      4.257  0.9780E+02  0.1581E+04
      4.329  0.8719E+02  0.1587E+04
      4.400  0.9340E+02  0.1594E+04
      4.472  0.9182E+02  0.1601E+04
      4.544  0.1487E+03  0.1611E+04
      4.616  0.1171E+03  0.1620E+04
      4.687  0.9263E+02  0.1626E+04
      4.759  0.1127E+03  0.1634E+04
      4.831  0.8580E+02  0.1641E+04
      4.903  0.1015E+03  0.1648E+04
      4.974  0.1697E+03  0.1660E+04
      5.046  0.1310E+03  0.1669E+04
      5.118  0.6916E+02  0.1674E+04
      5.190  0.9390E+02  0.1681E+04
      5.261  0.7373E+02  0.1686E+04
      5.333  0.1233E+03  0.1695E+04
      5.405  0.1440E+03  0.1706E+04
      5.477  0.1196E+03  0.1714E+04
      5.548  0.7267E+02  0.1719E+04
      5.620  0.9289E+02  0.1726E+04
      5.692  0.1410E+03  0.1736E+04
      5.764  0.1562E+03  0.1747E+04
      5.835  0.1069E+03  0.1755E+04
      5.907  0.1201E+03  0.1764E+04
      5.979  0.1170E+03  0.1772E+04
      6.051  0.8590E+02  0.1778E+04
      6.122  0.6258E+02  0.1783E+04
      6.194  0.4234E+02  0.1786E+04
      6.266  0.3747E+02  0.1788E+04
      6.338  0.3049E+02  0.1791E+04
      6.409  0.1380E+02  0.1792E+04
      6.481  0.7560E+01  0.1792E+04
      6.553  0.2452E+01  0.1792E+04
      6.625  0.4491E+01  0.1793E+04
      6.696  0.2857E+01  0.1793E+04
      6.768  0.2386E+01  0.1793E+04
      6.840  0.1639E+01  0.1793E+04
      6.912  0.1120E+02  0.1794E+04
      6.983  0.1506E+02  0.1795E+04
      7.055  0.1049E+02  0.1796E+04
      7.127  0.1041E+02  0.1796E+04
      7.199  0.2536E+02  0.1798E+04
      7.270  0.3120E+02  0.1801E+04
      7.342  0.1848E+02  0.1802E+04
      7.414  0.3189E+02  0.1804E+04
      7.486  0.3512E+02  0.1807E+04
      7.557  0.3718E+02  0.1809E+04
      7.629  0.5705E+02  0.1813E+04
      7.701  0.6745E+02  0.1818E+04
      7.773  0.7252E+02  0.1823E+04
      7.844  0.7358E+02  0.1829E+04
      7.916  0.6234E+02  0.1833E+04
      7.988  0.5803E+02  0.1837E+04
      8.060  0.7749E+02  0.1843E+04
      8.131  0.8145E+02  0.1849E+04
      8.203  0.8316E+02  0.1855E+04
      8.275  0.7356E+02  0.1860E+04
      8.347  0.6633E+02  0.1865E+04
      8.418  0.7392E+02  0.1870E+04
      8.490  0.8877E+02  0.1876E+04
      8.562  0.7591E+02  0.1882E+04
      8.634  0.5712E+02  0.1886E+04
      8.705  0.8107E+02  0.1892E+04
      8.777  0.8428E+02  0.1898E+04
      8.849  0.5814E+02  0.1902E+04
      8.921  0.4603E+02  0.1905E+04
      8.992  0.4040E+02  0.1908E+04
      9.064  0.5254E+02  0.1912E+04
      9.136  0.8550E+02  0.1918E+04
      9.208  0.6463E+02  0.1923E+04
      9.279  0.4925E+02  0.1926E+04
      9.351  0.5669E+02  0.1930E+04
      9.423  0.6783E+02  0.1935E+04
      9.494  0.6317E+02  0.1940E+04
      9.566  0.4092E+02  0.1943E+04
      9.638  0.7069E+02  0.1948E+04
      9.710  0.1035E+03  0.1955E+04
      9.781  0.1079E+03  0.1963E+04
      9.853  0.8824E+02  0.1969E+04
      9.925  0.7643E+02  0.1975E+04
      9.997  0.5792E+02  0.1979E+04
     10.068  0.8367E+02  0.1985E+04
     10.140  0.8836E+02  0.1991E+04
     10.212  0.9972E+02  0.1998E+04
     10.284  0.1087E+03  0.2006E+04
     10.355  0.1135E+03  0.2014E+04
     10.427  0.1103E+03  0.2022E+04
     10.499  0.9339E+02  0.2029E+04
     10.571  0.7380E+02  0.2034E+04
     10.642  0.7576E+02  0.2040E+04
     10.714  0.6975E+02  0.2045E+04
     10.786  0.6785E+02  0.2050E+04
     10.858  0.7230E+02  0.2055E+04
     10.929  0.7239E+02  0.2060E+04
     11.001  0.5530E+02  0.2064E+04
     11.073  0.9276E+02  0.2071E+04
     11.145  0.1054E+03  0.2078E+04
     11.216  0.8023E+02  0.2084E+04
     11.288  0.9531E+02  0.2091E+04
     11.360  0.8135E+02  0.2097E+04
     11.432  0.1063E+03  0.2104E+04
     11.503  0.1298E+03  0.2114E+04
     11.575  0.1184E+03  0.2122E+04
     11.647  0.1059E+03  0.2130E+04
     11.719  0.6285E+02  0.2134E+04
     11.790  0.8999E+02  0.2141E+04
     11.862  0.5127E+02  0.2144E+04
     11.934  0.2702E+02  0.2146E+04
     12.006  0.1406E+02  0.2147E+04
     12.077  0.1903E+02  0.2149E+04
     12.149  0.1358E+02  0.2150E+04
     12.221  0.5918E+01  0.2150E+04
     12.293  0.4931E+00  0.2150E+04
     12.364  0.1761E-02  0.2150E+04
     12.436  0.1586E-06  0.2150E+04
     12.508  0.2793E-12  0.2150E+04
     12.580  0.0000E+00  0.2150E+04
     12.651  0.0000E+00  0.2150E+04
     12.723  0.0000E+00  0.2150E+04
     12.795  0.0000E+00  0.2150E+04
     12.867  0.0000E+00  0.2150E+04
     12.938  0.0000E+00  0.2150E+04
     13.010  0.0000E+00  0.2150E+04
     13.082  0.0000E+00  0.2150E+04
     13.154  0.0000E+00  0.2150E+04
