<?xml version="1.0" encoding="ISO-8859-1"?>
<modeling>
 <generator>
  <i name="program" type="string">vasp </i>
  <i name="version" type="string">5.4.4.18Apr17-6-g9f103f2a35  </i>
  <i name="subversion" type="string">(build Jul 30 2020 14:31:59) complex            parallel </i>
  <i name="platform" type="string">LinuxIFC </i>
  <i name="date" type="string">2020 11 04 </i>
  <i name="time" type="string">05:07:56 </i>
 </generator>
 <incar>
  <i type="string" name="PREC">accurate</i>
  <i type="string" name="ALGO"> normal</i>
  <i type="logical" name="ADDGRID"> T  </i>
  <i type="int" name="ISPIN">     1</i>
  <i type="int" name="ICHARG">     1</i>
  <i type="int" name="NELM">   200</i>
  <i type="int" name="NELMIN">     8</i>
  <i name="EDIFF">      0.00000001</i>
  <i type="int" name="ISIF">     3</i>
  <i name="ENCUT">    650.00000000</i>
  <i type="logical" name="LREAL"> F  </i>
  <i type="int" name="ISMEAR">     0</i>
  <i name="SIGMA">      0.05000000</i>
  <i type="logical" name="LWAVE"> F  </i>
  <i type="logical" name="LASPH"> T  </i>
  <v type="int" name="KPOINT_BSE">    -1     0     0     0</v>
  <i type="int" name="NELM">   200</i>
  <i type="string" name="GGA"> ps</i>
  <i type="logical" name="LASPH"> T  </i>
 </incar>
 <structure name="primitive_cell" >
  <crystal>
   <varray name="basis" >
    <v>      17.67434300       0.00000000       0.02590756 </v>
    <v>       0.00000000      13.77516210       0.00000000 </v>
    <v>      -4.23144168       0.00000000      15.22594286 </v>
   </varray>
   <i name="volume">   3708.52383470 </i>
   <varray name="rec_basis" >
    <v>       0.05655615       0.00000000       0.01571752 </v>
    <v>       0.00000000       0.07259443       0.00000000 </v>
    <v>      -0.00009623       0.00000000       0.06565063 </v>
   </varray>
  </crystal>
  <varray name="positions" >
   <v>       0.08031353       0.12413882       0.07841825 </v>
   <v>       0.19124642       0.01122260       0.17003418 </v>
   <v>       0.18318778       0.26122260       0.07996576 </v>
   <v>       0.05608512       0.18037250       0.23351951 </v>
   <v>       0.18108512       0.06962750      -0.01648049 </v>
   <v>      -0.06891488       0.06962750      -0.01648049 </v>
   <v>       0.06891487      -0.06962750       0.01648043 </v>
   <v>       0.06681221       0.23877740      -0.07996582 </v>
   <v>      -0.06681222       0.26122260       0.07996576 </v>
   <v>      -0.05818779       0.01122260       0.17003418 </v>
   <v>       0.04468646       0.37413882       0.17158168 </v>
   <v>       0.04468646      -0.12586118       0.17158168 </v>
   <v>       0.20531353       0.12586118       0.32841825 </v>
   <v>      -0.04468647       0.12586118      -0.17158175 </v>
   <v>       0.19391487       0.31962750       0.26648043 </v>
   <v>       0.30608512       0.18037250       0.23351951 </v>
   <v>       0.05818778      -0.01122260      -0.17003424 </v>
   <v>       0.06891487       0.43037250       0.01648043 </v>
   <v>       0.33031353       0.12413882       0.07841825 </v>
   <v>      -0.16968647       0.12413882       0.07841825 </v>
   <v>       0.05818778      -0.01122260       0.32996576 </v>
   <v>      -0.08031354      -0.12413882      -0.07841832 </v>
   <v>       0.16968646      -0.12413882      -0.07841832 </v>
   <v>      -0.08031354       0.37586118      -0.07841832 </v>
   <v>       0.16968646       0.37586118      -0.07841832 </v>
   <v>      -0.18318779       0.23877740      -0.07996582 </v>
   <v>      -0.04468647       0.12586118       0.32841825 </v>
   <v>       0.20531353       0.12586118      -0.17158175 </v>
   <v>       0.29468646       0.37413882       0.17158168 </v>
   <v>       0.29468646      -0.12586118       0.17158168 </v>
   <v>      -0.05608513       0.31962750       0.26648043 </v>
   <v>       0.30818778      -0.01122260       0.32996576 </v>
   <v>      -0.18108513      -0.06962750       0.01648043 </v>
   <v>       0.19391487      -0.18037250       0.26648043 </v>
   <v>       0.31891487      -0.06962750       0.01648043 </v>
   <v>       0.18318778      -0.23877740       0.07996576 </v>
   <v>       0.05608512       0.18037250      -0.26648049 </v>
   <v>      -0.05608513       0.31962750      -0.23351957 </v>
   <v>      -0.06681222      -0.23877740       0.07996576 </v>
   <v>       0.31681221       0.23877740      -0.07996582 </v>
   <v>      -0.19181222      -0.01122260      -0.17003424 </v>
   <v>       0.06681221       0.23877740       0.42003418 </v>
   <v>       0.19181221      -0.48877740       0.17003418 </v>
   <v>       0.06681221      -0.26122260      -0.07996582 </v>
   <v>      -0.05608513      -0.18037250       0.26648043 </v>
   <v>      -0.19391488       0.18037250       0.23351951 </v>
   <v>       0.31681221       0.23877740       0.42003418 </v>
   <v>      -0.18108513       0.43037250       0.01648043 </v>
   <v>      -0.05818779      -0.48877740       0.17003418 </v>
   <v>       0.18108512       0.06962750       0.48351951 </v>
   <v>       0.31891487       0.43037250       0.01648043 </v>
   <v>       0.16968646      -0.12413882       0.42158168 </v>
   <v>       0.16968646       0.37586118       0.42158168 </v>
   <v>      -0.19391488       0.18037250      -0.26648049 </v>
   <v>       0.05818778       0.48877740      -0.17003424 </v>
   <v>       0.44181221       0.01122260       0.17003418 </v>
   <v>       0.19391487       0.31962750      -0.23351957 </v>
   <v>      -0.05608513      -0.18037250      -0.23351957 </v>
   <v>      -0.05818779       0.01122260      -0.32996582 </v>
   <v>       0.05818778       0.48877740       0.32996576 </v>
   <v>       0.43318778       0.26122260       0.07996576 </v>
   <v>      -0.20531354       0.37413882       0.17158168 </v>
   <v>      -0.20531354      -0.12586118       0.17158168 </v>
   <v>       0.30818778      -0.01122260      -0.17003424 </v>
   <v>       0.05608512      -0.31962750       0.23351951 </v>
   <v>       0.18108512      -0.43037250      -0.01648049 </v>
   <v>      -0.06891488      -0.43037250      -0.01648049 </v>
   <v>       0.45531353       0.12586118       0.32841825 </v>
   <v>      -0.29468647       0.12586118      -0.17158175 </v>
   <v>       0.43108512       0.06962750      -0.01648049 </v>
   <v>      -0.31891488       0.06962750      -0.01648049 </v>
   <v>       0.44391487       0.31962750       0.26648043 </v>
   <v>       0.08031353      -0.37586118       0.07841825 </v>
   <v>       0.30818778       0.48877740       0.32996576 </v>
   <v>      -0.18318779      -0.26122260      -0.07996582 </v>
   <v>       0.19391487      -0.18037250      -0.23351957 </v>
   <v>       0.04468646       0.37413882      -0.32841832 </v>
   <v>       0.04468646      -0.12586118      -0.32841832 </v>
   <v>      -0.19181222      -0.01122260       0.32996576 </v>
   <v>      -0.31681222       0.26122260       0.07996576 </v>
   <v>      -0.19181222       0.48877740      -0.17003424 </v>
   <v>       0.30608512      -0.31962750       0.23351951 </v>
   <v>       0.19181221       0.01122260      -0.32996582 </v>
   <v>       0.06891487      -0.06962750      -0.48351957 </v>
   <v>      -0.30818779       0.01122260       0.17003418 </v>
   <v>       0.31891487      -0.06962750      -0.48351957 </v>
   <v>      -0.08031354      -0.12413882       0.42158168 </v>
   <v>       0.31681221      -0.26122260      -0.07996582 </v>
   <v>      -0.06891488       0.06962750       0.48351951 </v>
   <v>       0.44391487      -0.18037250       0.26648043 </v>
   <v>      -0.08031354       0.37586118       0.42158168 </v>
   <v>       0.30608512       0.18037250      -0.26648049 </v>
   <v>       0.06681221      -0.26122260       0.42003418 </v>
   <v>       0.43108512       0.06962750       0.48351951 </v>
   <v>       0.41968646      -0.12413882       0.42158168 </v>
   <v>       0.41968646       0.37586118       0.42158168 </v>
   <v>      -0.30608513       0.31962750      -0.23351957 </v>
   <v>      -0.33031354      -0.12413882      -0.07841832 </v>
   <v>      -0.33031354       0.37586118      -0.07841832 </v>
   <v>      -0.20531354       0.37413882      -0.32841832 </v>
   <v>      -0.20531354      -0.12586118      -0.32841832 </v>
   <v>      -0.06681222       0.26122260      -0.42003424 </v>
   <v>       0.41968646      -0.12413882      -0.07841832 </v>
   <v>       0.18318778       0.26122260      -0.42003424 </v>
   <v>       0.41968646       0.37586118      -0.07841832 </v>
   <v>       0.08031353       0.12413882      -0.42158175 </v>
   <v>       0.31681221      -0.26122260       0.42003418 </v>
   <v>       0.20531353      -0.37413882       0.32841825 </v>
   <v>      -0.04468647      -0.37413882      -0.17158175 </v>
   <v>       0.33031353       0.12413882      -0.42158175 </v>
   <v>      -0.16968647       0.12413882      -0.42158175 </v>
   <v>       0.43318778      -0.23877740       0.07996576 </v>
   <v>       0.30818778       0.48877740      -0.17003424 </v>
   <v>       0.05608512      -0.31962750      -0.26648049 </v>
   <v>      -0.44391488       0.18037250       0.23351951 </v>
   <v>       0.44181221      -0.48877740       0.17003418 </v>
   <v>       0.06891487       0.43037250      -0.48351957 </v>
   <v>      -0.18318779       0.23877740       0.42003418 </v>
   <v>       0.33031353      -0.37586118       0.07841825 </v>
   <v>      -0.16968647      -0.37586118       0.07841825 </v>
   <v>      -0.30818779       0.01122260      -0.32996582 </v>
   <v>      -0.05818779      -0.48877740      -0.32996582 </v>
   <v>       0.31891487       0.43037250      -0.48351957 </v>
   <v>      -0.30608513      -0.18037250      -0.23351957 </v>
   <v>      -0.04468647      -0.37413882       0.32841825 </v>
   <v>       0.20531353      -0.37413882      -0.17158175 </v>
   <v>      -0.44181222      -0.01122260       0.32996576 </v>
   <v>      -0.19391488      -0.31962750       0.23351951 </v>
   <v>      -0.29468647       0.12586118       0.32841825 </v>
   <v>       0.45531353       0.12586118      -0.17158175 </v>
   <v>      -0.30608513       0.31962750       0.26648043 </v>
   <v>      -0.19181222       0.48877740       0.32996576 </v>
   <v>      -0.31681222      -0.23877740       0.07996576 </v>
   <v>      -0.45531354       0.37413882       0.17158168 </v>
   <v>      -0.45531354      -0.12586118       0.17158168 </v>
   <v>       0.18108512      -0.43037250       0.48351951 </v>
   <v>      -0.19391488      -0.31962750      -0.26648049 </v>
   <v>      -0.41968647       0.12413882       0.07841825 </v>
   <v>       0.43318778       0.26122260      -0.42003424 </v>
   <v>      -0.43318779       0.23877740      -0.07996582 </v>
   <v>       0.29468646       0.37413882      -0.32841832 </v>
   <v>       0.29468646      -0.12586118      -0.32841832 </v>
   <v>       0.19181221      -0.48877740      -0.32996582 </v>
   <v>      -0.43318779       0.23877740       0.42003418 </v>
   <v>      -0.06681222      -0.23877740      -0.42003424 </v>
   <v>      -0.30818779      -0.48877740       0.17003418 </v>
   <v>       0.43108512      -0.43037250      -0.01648049 </v>
   <v>       0.18318778      -0.23877740      -0.42003424 </v>
   <v>      -0.30608513      -0.18037250       0.26648043 </v>
   <v>      -0.31891488      -0.43037250      -0.01648049 </v>
   <v>      -0.44181222      -0.01122260      -0.17003424 </v>
   <v>      -0.43108513      -0.06962750       0.01648043 </v>
   <v>      -0.31681222       0.26122260      -0.42003424 </v>
   <v>      -0.18108513      -0.06962750      -0.48351957 </v>
   <v>      -0.44391488       0.18037250      -0.26648049 </v>
   <v>       0.44391487       0.31962750      -0.23351957 </v>
   <v>      -0.18318779      -0.26122260       0.42003418 </v>
   <v>       0.45531353      -0.37413882       0.32841825 </v>
   <v>      -0.29468647      -0.37413882      -0.17158175 </v>
   <v>      -0.30818779      -0.48877740      -0.32996582 </v>
   <v>      -0.44181222       0.48877740       0.32996576 </v>
   <v>       0.30608512      -0.31962750      -0.26648049 </v>
   <v>      -0.06891488      -0.43037250       0.48351951 </v>
   <v>      -0.43108513       0.43037250       0.01648043 </v>
   <v>       0.43108512      -0.43037250       0.48351951 </v>
   <v>      -0.18108513       0.43037250      -0.48351957 </v>
   <v>      -0.43108513      -0.06962750      -0.48351957 </v>
   <v>       0.44181221       0.01122260      -0.32996582 </v>
   <v>       0.44391487      -0.18037250      -0.23351957 </v>
   <v>       0.43318778      -0.23877740      -0.42003424 </v>
   <v>      -0.44391488      -0.31962750       0.23351951 </v>
   <v>      -0.41968647       0.12413882      -0.42158175 </v>
   <v>      -0.31891488       0.06962750       0.48351951 </v>
   <v>      -0.43318779      -0.26122260      -0.07996582 </v>
   <v>      -0.44181222       0.48877740      -0.17003424 </v>
   <v>      -0.43318779      -0.26122260       0.42003418 </v>
   <v>      -0.31681222      -0.23877740      -0.42003424 </v>
   <v>      -0.43108513       0.43037250      -0.48351957 </v>
   <v>       0.08031353      -0.37586118      -0.42158175 </v>
   <v>      -0.45531354       0.37413882      -0.32841832 </v>
   <v>      -0.45531354      -0.12586118      -0.32841832 </v>
   <v>       0.33031353      -0.37586118      -0.42158175 </v>
   <v>      -0.16968647      -0.37586118      -0.42158175 </v>
   <v>      -0.33031354      -0.12413882       0.42158168 </v>
   <v>      -0.33031354       0.37586118       0.42158168 </v>
   <v>      -0.29468647      -0.37413882       0.32841825 </v>
   <v>       0.45531353      -0.37413882      -0.17158175 </v>
   <v>       0.44181221      -0.48877740      -0.32996582 </v>
   <v>      -0.41968647      -0.37586118       0.07841825 </v>
   <v>      -0.44391488      -0.31962750      -0.26648049 </v>
   <v>      -0.31891488      -0.43037250       0.48351951 </v>
   <v>      -0.41968647      -0.37586118      -0.42158175 </v>
  </varray>
 </structure>
 <varray name="primitive_index" >
  <v type="int" >        1 </v>
  <v type="int" >       65 </v>
  <v type="int" >       81 </v>
  <v type="int" >      129 </v>
  <v type="int" >      185 </v>
  <v type="int" >      188 </v>
  <v type="int" >      149 </v>
  <v type="int" >      121 </v>
  <v type="int" >       84 </v>
  <v type="int" >       68 </v>
  <v type="int" >       17 </v>
  <v type="int" >       21 </v>
  <v type="int" >       49 </v>
  <v type="int" >       60 </v>
  <v type="int" >      161 </v>
  <v type="int" >      130 </v>
  <v type="int" >      109 </v>
  <v type="int" >      145 </v>
  <v type="int" >        2 </v>
  <v type="int" >        4 </v>
  <v type="int" >      101 </v>
  <v type="int" >       48 </v>
  <v type="int" >       45 </v>
  <v type="int" >       44 </v>
  <v type="int" >       41 </v>
  <v type="int" >      124 </v>
  <v type="int" >       52 </v>
  <v type="int" >       57 </v>
  <v type="int" >       18 </v>
  <v type="int" >       22 </v>
  <v type="int" >      164 </v>
  <v type="int" >      102 </v>
  <v type="int" >      152 </v>
  <v type="int" >      165 </v>
  <v type="int" >      150 </v>
  <v type="int" >       85 </v>
  <v type="int" >      137 </v>
  <v type="int" >      172 </v>
  <v type="int" >       88 </v>
  <v type="int" >      122 </v>
  <v type="int" >      112 </v>
  <v type="int" >      113 </v>
  <v type="int" >       69 </v>
  <v type="int" >      125 </v>
  <v type="int" >      168 </v>
  <v type="int" >      132 </v>
  <v type="int" >      114 </v>
  <v type="int" >      148 </v>
  <v type="int" >       72 </v>
  <v type="int" >      177 </v>
  <v type="int" >      146 </v>
  <v type="int" >       37 </v>
  <v type="int" >       33 </v>
  <v type="int" >      140 </v>
  <v type="int" >      105 </v>
  <v type="int" >       66 </v>
  <v type="int" >      169 </v>
  <v type="int" >      176 </v>
  <v type="int" >       76 </v>
  <v type="int" >       97 </v>
  <v type="int" >       82 </v>
  <v type="int" >       20 </v>
  <v type="int" >       24 </v>
  <v type="int" >      110 </v>
  <v type="int" >      133 </v>
  <v type="int" >      189 </v>
  <v type="int" >      192 </v>
  <v type="int" >       50 </v>
  <v type="int" >       59 </v>
  <v type="int" >      186 </v>
  <v type="int" >      187 </v>
  <v type="int" >      162 </v>
  <v type="int" >        5 </v>
  <v type="int" >       98 </v>
  <v type="int" >      128 </v>
  <v type="int" >      173 </v>
  <v type="int" >       25 </v>
  <v type="int" >       29 </v>
  <v type="int" >      104 </v>
  <v type="int" >       83 </v>
  <v type="int" >      108 </v>
  <v type="int" >      134 </v>
  <v type="int" >       73 </v>
  <v type="int" >      157 </v>
  <v type="int" >       67 </v>
  <v type="int" >      158 </v>
  <v type="int" >       40 </v>
  <v type="int" >      126 </v>
  <v type="int" >      180 </v>
  <v type="int" >      166 </v>
  <v type="int" >       36 </v>
  <v type="int" >      138 </v>
  <v type="int" >      117 </v>
  <v type="int" >      178 </v>
  <v type="int" >       38 </v>
  <v type="int" >       34 </v>
  <v type="int" >      171 </v>
  <v type="int" >       47 </v>
  <v type="int" >       43 </v>
  <v type="int" >       28 </v>
  <v type="int" >       32 </v>
  <v type="int" >       92 </v>
  <v type="int" >       46 </v>
  <v type="int" >       89 </v>
  <v type="int" >       42 </v>
  <v type="int" >        9 </v>
  <v type="int" >      118 </v>
  <v type="int" >       53 </v>
  <v type="int" >       64 </v>
  <v type="int" >       10 </v>
  <v type="int" >       12 </v>
  <v type="int" >       86 </v>
  <v type="int" >      106 </v>
  <v type="int" >      141 </v>
  <v type="int" >      131 </v>
  <v type="int" >       70 </v>
  <v type="int" >      153 </v>
  <v type="int" >      116 </v>
  <v type="int" >        6 </v>
  <v type="int" >        8 </v>
  <v type="int" >       75 </v>
  <v type="int" >       80 </v>
  <v type="int" >      154 </v>
  <v type="int" >      175 </v>
  <v type="int" >       56 </v>
  <v type="int" >       61 </v>
  <v type="int" >      103 </v>
  <v type="int" >      136 </v>
  <v type="int" >       51 </v>
  <v type="int" >       58 </v>
  <v type="int" >      163 </v>
  <v type="int" >      100 </v>
  <v type="int" >       87 </v>
  <v type="int" >       19 </v>
  <v type="int" >       23 </v>
  <v type="int" >      181 </v>
  <v type="int" >      144 </v>
  <v type="int" >        3 </v>
  <v type="int" >       90 </v>
  <v type="int" >      123 </v>
  <v type="int" >       26 </v>
  <v type="int" >       30 </v>
  <v type="int" >       77 </v>
  <v type="int" >      115 </v>
  <v type="int" >       96 </v>
  <v type="int" >       71 </v>
  <v type="int" >      190 </v>
  <v type="int" >       93 </v>
  <v type="int" >      167 </v>
  <v type="int" >      191 </v>
  <v type="int" >      111 </v>
  <v type="int" >      151 </v>
  <v type="int" >       91 </v>
  <v type="int" >      160 </v>
  <v type="int" >      139 </v>
  <v type="int" >      170 </v>
  <v type="int" >      120 </v>
  <v type="int" >       54 </v>
  <v type="int" >       63 </v>
  <v type="int" >       79 </v>
  <v type="int" >       99 </v>
  <v type="int" >      142 </v>
  <v type="int" >      184 </v>
  <v type="int" >      147 </v>
  <v type="int" >      182 </v>
  <v type="int" >      156 </v>
  <v type="int" >      159 </v>
  <v type="int" >       74 </v>
  <v type="int" >      174 </v>
  <v type="int" >       94 </v>
  <v type="int" >      135 </v>
  <v type="int" >       11 </v>
  <v type="int" >      179 </v>
  <v type="int" >      127 </v>
  <v type="int" >      107 </v>
  <v type="int" >      119 </v>
  <v type="int" >       95 </v>
  <v type="int" >      155 </v>
  <v type="int" >       13 </v>
  <v type="int" >       27 </v>
  <v type="int" >       31 </v>
  <v type="int" >       14 </v>
  <v type="int" >       16 </v>
  <v type="int" >       39 </v>
  <v type="int" >       35 </v>
  <v type="int" >       55 </v>
  <v type="int" >       62 </v>
  <v type="int" >       78 </v>
  <v type="int" >        7 </v>
  <v type="int" >      143 </v>
  <v type="int" >      183 </v>
  <v type="int" >       15 </v>
 </varray>
 <kpoints>
  <generation param="Gamma">
   <v type="int" name="divisions">       2        2        2 </v>
   <v name="usershift">      0.00000000       0.00000000       0.00000000 </v>
   <v name="genvec1">      0.50000000       0.00000000       0.00000000 </v>
   <v name="genvec2">      0.00000000       0.50000000       0.00000000 </v>
   <v name="genvec3">      0.00000000       0.00000000       0.50000000 </v>
   <v name="shift">      0.00000000       0.00000000       0.00000000 </v>
  </generation>
  <varray name="kpointlist" >
   <v>       0.00000000       0.00000000       0.00000000 </v>
   <v>       0.50000000       0.00000000      -0.00000000 </v>
   <v>       0.00000000       0.50000000       0.00000000 </v>
   <v>       0.50000000       0.50000000      -0.00000000 </v>
   <v>      -0.00000000       0.00000000       0.50000000 </v>
   <v>       0.50000000       0.00000000       0.50000000 </v>
   <v>      -0.00000000       0.50000000       0.50000000 </v>
   <v>       0.50000000       0.50000000       0.50000000 </v>
  </varray>
  <varray name="weights" >
   <v>       0.12500000 </v>
   <v>       0.12500000 </v>
   <v>       0.12500000 </v>
   <v>       0.12500000 </v>
   <v>       0.12500000 </v>
   <v>       0.12500000 </v>
   <v>       0.12500000 </v>
   <v>       0.12500000 </v>
  </varray>
 </kpoints>
 <parameters>
  <separator name="general" >
   <i type="string" name="SYSTEM">unknown system</i>
   <i type="logical" name="LCOMPAT"> F  </i>
  </separator>
  <separator name="electronic" >
   <i type="string" name="PREC">accura</i>
   <i name="ENMAX">    650.00000000</i>
   <i name="ENAUG">    446.84200000</i>
   <i name="EDIFF">      0.00000001</i>
   <i type="int" name="IALGO">    38</i>
   <i type="int" name="IWAVPR">    10</i>
   <i type="int" name="NBANDS">  1075</i>
   <i name="NELECT">   1792.00000000</i>
   <i type="int" name="TURBO">     0</i>
   <i type="int" name="IRESTART">     0</i>
   <i type="int" name="NREBOOT">     0</i>
   <i type="int" name="NMIN">     0</i>
   <i name="EREF">      0.00000000</i>
   <separator name="electronic smearing" >
    <i type="int" name="ISMEAR">     0</i>
    <i name="SIGMA">      0.05000000</i>
    <i name="KSPACING">      0.50000000</i>
    <i type="logical" name="KGAMMA"> T  </i>
   </separator>
   <separator name="electronic projectors" >
    <i type="logical" name="LREAL"> F  </i>
    <v name="ROPT">      0.00000000      0.00000000</v>
    <i type="int" name="LMAXPAW">  -100</i>
    <i type="int" name="LMAXMIX">     2</i>
    <i type="logical" name="NLSPLINE"> F  </i>
   </separator>
   <separator name="electronic startup" >
    <i type="int" name="ISTART">     0</i>
    <i type="int" name="ICHARG">     1</i>
    <i type="int" name="INIWAV">     1</i>
   </separator>
   <separator name="electronic spin" >
    <i type="int" name="ISPIN">     1</i>
    <i type="logical" name="LNONCOLLINEAR"> F  </i>
    <v name="MAGMOM">      1.00000000      1.00000000      1.00000000      1.00000000      1.00000000      1.00000000      1.00000000      1.00000000      1.00000000      1.00000000      1.00000000      1.00000000      1.00000000      1.00000000      1.00000000      1.00000000      1.00000000      1.00000000      1.00000000      1.00000000
      1.00000000      1.00000000      1.00000000      1.00000000      1.00000000      1.00000000      1.00000000      1.00000000      1.00000000      1.00000000      1.00000000      1.00000000      1.00000000      1.00000000      1.00000000      1.00000000      1.00000000      1.00000000      1.00000000      1.00000000
      1.00000000      1.00000000      1.00000000      1.00000000      1.00000000      1.00000000      1.00000000      1.00000000      1.00000000      1.00000000      1.00000000      1.00000000      1.00000000      1.00000000      1.00000000      1.00000000      1.00000000      1.00000000      1.00000000      1.00000000
      1.00000000      1.00000000      1.00000000      1.00000000      1.00000000      1.00000000      1.00000000      1.00000000      1.00000000      1.00000000      1.00000000      1.00000000      1.00000000      1.00000000      1.00000000      1.00000000      1.00000000      1.00000000      1.00000000      1.00000000
      1.00000000      1.00000000      1.00000000      1.00000000      1.00000000      1.00000000      1.00000000      1.00000000      1.00000000      1.00000000      1.00000000      1.00000000      1.00000000      1.00000000      1.00000000      1.00000000      1.00000000      1.00000000      1.00000000      1.00000000
      1.00000000      1.00000000      1.00000000      1.00000000      1.00000000      1.00000000      1.00000000      1.00000000      1.00000000      1.00000000      1.00000000      1.00000000      1.00000000      1.00000000      1.00000000      1.00000000      1.00000000      1.00000000      1.00000000      1.00000000
      1.00000000      1.00000000      1.00000000      1.00000000      1.00000000      1.00000000      1.00000000      1.00000000      1.00000000      1.00000000      1.00000000      1.00000000      1.00000000      1.00000000      1.00000000      1.00000000      1.00000000      1.00000000      1.00000000      1.00000000
      1.00000000      1.00000000      1.00000000      1.00000000      1.00000000      1.00000000      1.00000000      1.00000000      1.00000000      1.00000000      1.00000000      1.00000000      1.00000000      1.00000000      1.00000000      1.00000000      1.00000000      1.00000000      1.00000000      1.00000000
      1.00000000      1.00000000      1.00000000      1.00000000      1.00000000      1.00000000      1.00000000      1.00000000      1.00000000      1.00000000      1.00000000      1.00000000      1.00000000      1.00000000      1.00000000      1.00000000      1.00000000      1.00000000      1.00000000      1.00000000
      1.00000000      1.00000000      1.00000000      1.00000000      1.00000000      1.00000000      1.00000000      1.00000000      1.00000000      1.00000000      1.00000000      1.00000000</v>
    <i name="NUPDOWN">     -1.00000000</i>
    <i type="logical" name="LSORBIT"> F  </i>
    <v name="SAXIS">      0.00000000      0.00000000      1.00000000</v>
    <i type="logical" name="LSPIRAL"> F  </i>
    <v name="QSPIRAL">      0.00000000      0.00000000      0.00000000</v>
    <i type="logical" name="LZEROZ"> F  </i>
   </separator>
   <separator name="electronic exchange-correlation" >
    <i type="logical" name="LASPH"> T  </i>
    <i type="logical" name="LMETAGGA"> F  </i>
   </separator>
   <separator name="electronic convergence" >
    <i type="int" name="NELM">   200</i>
    <i type="int" name="NELMDL">     0</i>
    <i type="int" name="NELMIN">     8</i>
    <i name="ENINI">    650.00000000</i>
    <separator name="electronic convergence detail" >
     <i type="logical" name="LDIAG"> T  </i>
     <i type="logical" name="LSUBROT"> F  </i>
     <i name="WEIMIN">      0.00000000</i>
     <i name="EBREAK">      0.00000000</i>
     <i name="DEPER">      0.30000000</i>
     <i type="int" name="NRMM">     4</i>
     <i name="TIME">      0.40000000</i>
    </separator>
   </separator>
   <separator name="electronic mixer" >
    <i name="AMIX">      0.40000000</i>
    <i name="BMIX">      1.00000000</i>
    <i name="AMIN">      0.10000000</i>
    <i name="AMIX_MAG">      1.60000000</i>
    <i name="BMIX_MAG">      1.00000000</i>
    <separator name="electronic mixer details" >
     <i type="int" name="IMIX">     4</i>
     <i type="logical" name="MIXFIRST"> F  </i>
     <i type="int" name="MAXMIX">   -45</i>
     <i name="WC">    100.00000000</i>
     <i type="int" name="INIMIX">     1</i>
     <i type="int" name="MIXPRE">     1</i>
     <i type="int" name="MREMOVE">     5</i>
    </separator>
   </separator>
   <separator name="electronic dipolcorrection" >
    <i type="logical" name="LDIPOL"> F  </i>
    <i type="logical" name="LMONO"> F  </i>
    <i type="int" name="IDIPOL">     0</i>
    <i name="EPSILON">      1.00000000</i>
    <v name="DIPOL">   -100.00000000   -100.00000000   -100.00000000</v>
    <i name="EFIELD">      0.00000000</i>
   </separator>
  </separator>
  <separator name="grids" >
   <i type="int" name="NGX">   150</i>
   <i type="int" name="NGY">   120</i>
   <i type="int" name="NGZ">   140</i>
   <i type="int" name="NGXF">   300</i>
   <i type="int" name="NGYF">   240</i>
   <i type="int" name="NGZF">   280</i>
   <i type="logical" name="ADDGRID"> T  </i>
  </separator>
  <separator name="ionic" >
   <i type="int" name="NSW">     0</i>
   <i type="int" name="IBRION">    -1</i>
   <i type="int" name="MDALGO">     0</i>
   <i type="int" name="ISIF">     3</i>
   <i name="PSTRESS">      0.00000000</i>
   <i name="EDIFFG">      0.00000010</i>
   <i type="int" name="NFREE">     0</i>
   <i name="POTIM">      0.50000000</i>
   <i name="SMASS">     -3.00000000</i>
   <i name="SCALEE">      1.00000000</i>
  </separator>
  <separator name="ionic md" >
   <i name="TEBEG">      0.00010000</i>
   <i name="TEEND">      0.00010000</i>
   <i type="int" name="NBLOCK">     1</i>
   <i type="int" name="KBLOCK">     1</i>
   <i type="int" name="NPACO">   256</i>
   <i name="APACO">     16.00000000</i>
  </separator>
  <separator name="symmetry" >
   <i type="int" name="ISYM">     2</i>
   <i name="SYMPREC">      0.00001000</i>
  </separator>
  <separator name="dos" >
   <i type="int" name="LORBIT">     0</i>
   <v name="RWIGS">     -1.00000000     -1.00000000</v>
   <i type="int" name="NEDOS">   301</i>
   <i name="EMIN">     10.00000000</i>
   <i name="EMAX">    -10.00000000</i>
   <i name="EFERMI">      0.00000000</i>
  </separator>
  <separator name="writing" >
   <i type="int" name="NWRITE">     2</i>
   <i type="logical" name="LWAVE"> F  </i>
   <i type="logical" name="LDOWNSAMPLE"> F  </i>
   <i type="logical" name="LCHARG"> T  </i>
   <i type="logical" name="LPARD"> F  </i>
   <i type="logical" name="LVTOT"> F  </i>
   <i type="logical" name="LVHAR"> F  </i>
   <i type="logical" name="LELF"> F  </i>
   <i type="logical" name="LOPTICS"> F  </i>
   <v name="STM">      0.00000000      0.00000000      0.00000000      0.00000000      0.00000000      0.00000000      0.00000000</v>
  </separator>
  <separator name="performance" >
   <i type="int" name="NPAR">     1</i>
   <i type="int" name="NSIM">     4</i>
   <i type="int" name="NBLK">    -1</i>
   <i type="logical" name="LPLANE"> T  </i>
   <i type="logical" name="LSCALAPACK"> T  </i>
   <i type="logical" name="LSCAAWARE"> F  </i>
   <i type="logical" name="LSCALU"> F  </i>
   <i type="logical" name="LASYNC"> F  </i>
   <i type="logical" name="LORBITALREAL"> F  </i>
  </separator>
  <separator name="miscellaneous" >
   <i type="int" name="IDIOT">     3</i>
   <i type="int" name="ISPECIAL">     0</i>
   <i type="logical" name="LMUSIC"> F  </i>
   <v name="POMASS">     78.96000000    107.86800000</v>
   <v name="DARWINR">      0.00000000      0.00000000</v>
   <v name="DARWINV">      1.00000000      1.00000000</v>
   <i type="logical" name="LCORR"> T  </i>
  </separator>
  <i type="logical" name="GGA_COMPAT"> T  </i>
  <i type="logical" name="LBERRY"> F  </i>
  <i type="int" name="ICORELEVEL">     0</i>
  <i type="logical" name="LDAU"> F  </i>
  <i type="int" name="I_CONSTRAINED_M">     0</i>
  <separator name="electronic exchange-correlation" >
   <i type="string" name="GGA">PS</i>
   <i type="int" name="VOSKOWN">     0</i>
   <i type="logical" name="LHFCALC"> F  </i>
   <i type="string" name="PRECFOCK"></i>
   <i type="logical" name="LSYMGRAD"> F  </i>
   <i type="logical" name="LHFONE"> F  </i>
   <i type="logical" name="LRHFCALC"> F  </i>
   <i type="logical" name="LTHOMAS"> F  </i>
   <i type="logical" name="LMODELHF"> F  </i>
   <i name="ENCUT4O">     -1.00000000</i>
   <i type="int" name="EXXOEP">     0</i>
   <i type="int" name="FOURORBIT">     0</i>
   <i name="AEXX">      0.00000000</i>
   <i name="HFALPHA">      0.00000000</i>
   <i name="MCALPHA">      0.00000000</i>
   <i name="ALDAX">      1.00000000</i>
   <i name="AGGAX">      1.00000000</i>
   <i name="ALDAC">      1.00000000</i>
   <i name="AGGAC">      1.00000000</i>
   <i type="int" name="NKREDX">     1</i>
   <i type="int" name="NKREDY">     1</i>
   <i type="int" name="NKREDZ">     1</i>
   <i type="logical" name="SHIFTRED"> F  </i>
   <i type="logical" name="ODDONLY"> F  </i>
   <i type="logical" name="EVENONLY"> F  </i>
   <i type="int" name="LMAXFOCK">     0</i>
   <i type="int" name="NMAXFOCKAE">     0</i>
   <i type="logical" name="LFOCKAEDFT"> F  </i>
   <i name="HFSCREEN">      0.00000000</i>
   <i name="HFSCREENC">      0.00000000</i>
   <i type="int" name="NBANDSGWLOW">     0</i>
  </separator>
  <separator name="vdW DFT" >
   <i type="logical" name="LUSE_VDW"> F  </i>
   <i name="Zab_VDW">     -0.84910000</i>
   <i name="PARAM1">      0.12340000</i>
   <i name="PARAM2">      1.00000000</i>
   <i name="PARAM3">      0.00000000</i>
  </separator>
  <separator name="model GW" >
   <i type="int" name="MODEL_GW">     0</i>
   <i name="MODEL_EPS0">     11.58913698</i>
   <i name="MODEL_ALPHA">      1.00000000</i>
  </separator>
  <separator name="linear response parameters" >
   <i type="logical" name="LEPSILON"> F  </i>
   <i type="logical" name="LRPA"> F  </i>
   <i type="logical" name="LNABLA"> F  </i>
   <i type="logical" name="LVEL"> F  </i>
   <i type="int" name="KINTER">     0</i>
   <i name="CSHIFT">      0.10000000</i>
   <i name="OMEGAMAX">     -1.00000000</i>
   <i name="DEG_THRESHOLD">      0.00200000</i>
   <i name="RTIME">     -0.10000000</i>
   <i name="WPLASMAI">      0.00000000</i>
   <v name="DFIELD">      0.00000000      0.00000000      0.00000000</v>
   <v name="WPLASMA">      0.00000000      0.00000000      0.00000000      0.00000000      0.00000000      0.00000000      0.00000000      0.00000000      0.00000000</v>
  </separator>
  <separator name="orbital magnetization" >
   <i type="logical" name="NUCIND"> F  </i>
   <v name="MAGPOS">      0.00000000      0.00000000      0.00000000</v>
   <i type="logical" name="LNICSALL"> T  </i>
   <i type="logical" name="ORBITALMAG"> F  </i>
   <i type="logical" name="LMAGBLOCH"> F  </i>
   <i type="logical" name="LCHIMAG"> F  </i>
   <i type="logical" name="LGAUGE"> T  </i>
   <i type="int" name="MAGATOM">     0</i>
   <v name="MAGDIPOL">      0.00000000      0.00000000      0.00000000</v>
   <v name="AVECCONST">      0.00000000      0.00000000      0.00000000</v>
  </separator>
  <separator name="response functions" >
   <i type="logical" name="LADDER"> F  </i>
   <i type="logical" name="LRPAFORCE"> F  </i>
   <i type="logical" name="LFXC"> F  </i>
   <i type="logical" name="LHARTREE"> T  </i>
   <i type="int" name="IBSE">     0</i>
   <v type="int" name="KPOINT">    -1     0     0     0</v>
   <i type="logical" name="LTCTE"> F  </i>
   <i type="logical" name="LTETE"> F  </i>
   <i type="logical" name="LTRIPLET"> F  </i>
   <i type="logical" name="LFXCEPS"> F  </i>
   <i type="logical" name="LFXHEG"> F  </i>
   <i type="int" name="NATURALO">     2</i>
   <i type="logical" name="L2ORDER"> F  </i>
   <i type="logical" name="LMP2LT"> F  </i>
   <i type="logical" name="LUSEW"> F  </i>
   <i name="ENCUTGW">     -2.00000000</i>
   <i name="ENCUTGWSOFT">     -2.00000000</i>
   <i name="ENCUTLF">     -1.00000000</i>
   <i type="int" name="LMAXMP2">    -1</i>
   <i name="SCISSOR">      0.00000000</i>
   <i type="int" name="NOMEGA">     0</i>
   <i type="int" name="NOMEGAR">     0</i>
   <i type="int" name="NBANDSGW">    -1</i>
   <i type="int" name="NBANDSO">    -1</i>
   <i type="int" name="NBANDSV">    -1</i>
   <i type="int" name="NELM">   200</i>
   <i type="int" name="NELMHF">     1</i>
   <i type="int" name="DIM">     3</i>
   <i type="int" name="ANTIRES">     0</i>
   <i name="OMEGAMAX">    -30.00000000</i>
   <i name="OMEGAMIN">    -30.00000000</i>
   <i name="OMEGATL">   -200.00000000</i>
   <i type="int" name="OMEGAGRID">   140</i>
   <i name="CSHIFT">     -0.10000000</i>
   <i type="logical" name="SELFENERGY"> F  </i>
   <i type="logical" name="LSPECTRAL"> F  </i>
   <i type="logical" name="LSPECTRALGW"> F  </i>
   <i type="logical" name="LSINGLES"> F  </i>
   <i type="logical" name="LFERMIGW"> F  </i>
   <i type="logical" name="ODDONLYGW"> F  </i>
   <i type="logical" name="EVENONLYGW"> F  </i>
   <i type="int" name="NKREDLFX">     1</i>
   <i type="int" name="NKREDLFY">     1</i>
   <i type="int" name="NKREDLFZ">     1</i>
   <i type="int" name="MAXMEM">  2800</i>
   <i type="int" name="TELESCOPE">     0</i>
   <i type="int" name="TAUPAR">     1</i>
   <i type="int" name="OMEGAPAR">    -1</i>
   <i name="LAMBDA">      1.00000000</i>
  </separator>
  <separator name="External order field" >
   <i name="OFIELD_KAPPA">      0.00000000</i>
   <v name="OFIELD_K">      0.00000000      0.00000000      0.00000000</v>
   <i name="OFIELD_Q6_NEAR">      0.00000000</i>
   <i name="OFIELD_Q6_FAR">      0.00000000</i>
   <i name="OFIELD_A">      0.00000000</i>
  </separator>
 </parameters>
 <atominfo>
  <atoms>     192 </atoms>
  <types>       2 </types>
  <array name="atoms" >
   <dimension dim="1">ion</dimension>
   <field type="string">element</field>
   <field type="int">atomtype</field>
   <set>
    <rc><c>Se</c><c>   1</c></rc>
    <rc><c>Se</c><c>   1</c></rc>
    <rc><c>Se</c><c>   1</c></rc>
    <rc><c>Se</c><c>   1</c></rc>
    <rc><c>Se</c><c>   1</c></rc>
    <rc><c>Se</c><c>   1</c></rc>
    <rc><c>Se</c><c>   1</c></rc>
    <rc><c>Se</c><c>   1</c></rc>
    <rc><c>Se</c><c>   1</c></rc>
    <rc><c>Se</c><c>   1</c></rc>
    <rc><c>Se</c><c>   1</c></rc>
    <rc><c>Se</c><c>   1</c></rc>
    <rc><c>Se</c><c>   1</c></rc>
    <rc><c>Se</c><c>   1</c></rc>
    <rc><c>Se</c><c>   1</c></rc>
    <rc><c>Se</c><c>   1</c></rc>
    <rc><c>Se</c><c>   1</c></rc>
    <rc><c>Se</c><c>   1</c></rc>
    <rc><c>Se</c><c>   1</c></rc>
    <rc><c>Se</c><c>   1</c></rc>
    <rc><c>Se</c><c>   1</c></rc>
    <rc><c>Se</c><c>   1</c></rc>
    <rc><c>Se</c><c>   1</c></rc>
    <rc><c>Se</c><c>   1</c></rc>
    <rc><c>Se</c><c>   1</c></rc>
    <rc><c>Se</c><c>   1</c></rc>
    <rc><c>Se</c><c>   1</c></rc>
    <rc><c>Se</c><c>   1</c></rc>
    <rc><c>Se</c><c>   1</c></rc>
    <rc><c>Se</c><c>   1</c></rc>
    <rc><c>Se</c><c>   1</c></rc>
    <rc><c>Se</c><c>   1</c></rc>
    <rc><c>Se</c><c>   1</c></rc>
    <rc><c>Se</c><c>   1</c></rc>
    <rc><c>Se</c><c>   1</c></rc>
    <rc><c>Se</c><c>   1</c></rc>
    <rc><c>Se</c><c>   1</c></rc>
    <rc><c>Se</c><c>   1</c></rc>
    <rc><c>Se</c><c>   1</c></rc>
    <rc><c>Se</c><c>   1</c></rc>
    <rc><c>Se</c><c>   1</c></rc>
    <rc><c>Se</c><c>   1</c></rc>
    <rc><c>Se</c><c>   1</c></rc>
    <rc><c>Se</c><c>   1</c></rc>
    <rc><c>Se</c><c>   1</c></rc>
    <rc><c>Se</c><c>   1</c></rc>
    <rc><c>Se</c><c>   1</c></rc>
    <rc><c>Se</c><c>   1</c></rc>
    <rc><c>Se</c><c>   1</c></rc>
    <rc><c>Se</c><c>   1</c></rc>
    <rc><c>Se</c><c>   1</c></rc>
    <rc><c>Se</c><c>   1</c></rc>
    <rc><c>Se</c><c>   1</c></rc>
    <rc><c>Se</c><c>   1</c></rc>
    <rc><c>Se</c><c>   1</c></rc>
    <rc><c>Se</c><c>   1</c></rc>
    <rc><c>Se</c><c>   1</c></rc>
    <rc><c>Se</c><c>   1</c></rc>
    <rc><c>Se</c><c>   1</c></rc>
    <rc><c>Se</c><c>   1</c></rc>
    <rc><c>Se</c><c>   1</c></rc>
    <rc><c>Se</c><c>   1</c></rc>
    <rc><c>Se</c><c>   1</c></rc>
    <rc><c>Se</c><c>   1</c></rc>
    <rc><c>Ag</c><c>   2</c></rc>
    <rc><c>Ag</c><c>   2</c></rc>
    <rc><c>Ag</c><c>   2</c></rc>
    <rc><c>Ag</c><c>   2</c></rc>
    <rc><c>Ag</c><c>   2</c></rc>
    <rc><c>Ag</c><c>   2</c></rc>
    <rc><c>Ag</c><c>   2</c></rc>
    <rc><c>Ag</c><c>   2</c></rc>
    <rc><c>Ag</c><c>   2</c></rc>
    <rc><c>Ag</c><c>   2</c></rc>
    <rc><c>Ag</c><c>   2</c></rc>
    <rc><c>Ag</c><c>   2</c></rc>
    <rc><c>Ag</c><c>   2</c></rc>
    <rc><c>Ag</c><c>   2</c></rc>
    <rc><c>Ag</c><c>   2</c></rc>
    <rc><c>Ag</c><c>   2</c></rc>
    <rc><c>Ag</c><c>   2</c></rc>
    <rc><c>Ag</c><c>   2</c></rc>
    <rc><c>Ag</c><c>   2</c></rc>
    <rc><c>Ag</c><c>   2</c></rc>
    <rc><c>Ag</c><c>   2</c></rc>
    <rc><c>Ag</c><c>   2</c></rc>
    <rc><c>Ag</c><c>   2</c></rc>
    <rc><c>Ag</c><c>   2</c></rc>
    <rc><c>Ag</c><c>   2</c></rc>
    <rc><c>Ag</c><c>   2</c></rc>
    <rc><c>Ag</c><c>   2</c></rc>
    <rc><c>Ag</c><c>   2</c></rc>
    <rc><c>Ag</c><c>   2</c></rc>
    <rc><c>Ag</c><c>   2</c></rc>
    <rc><c>Ag</c><c>   2</c></rc>
    <rc><c>Ag</c><c>   2</c></rc>
    <rc><c>Ag</c><c>   2</c></rc>
    <rc><c>Ag</c><c>   2</c></rc>
    <rc><c>Ag</c><c>   2</c></rc>
    <rc><c>Ag</c><c>   2</c></rc>
    <rc><c>Ag</c><c>   2</c></rc>
    <rc><c>Ag</c><c>   2</c></rc>
    <rc><c>Ag</c><c>   2</c></rc>
    <rc><c>Ag</c><c>   2</c></rc>
    <rc><c>Ag</c><c>   2</c></rc>
    <rc><c>Ag</c><c>   2</c></rc>
    <rc><c>Ag</c><c>   2</c></rc>
    <rc><c>Ag</c><c>   2</c></rc>
    <rc><c>Ag</c><c>   2</c></rc>
    <rc><c>Ag</c><c>   2</c></rc>
    <rc><c>Ag</c><c>   2</c></rc>
    <rc><c>Ag</c><c>   2</c></rc>
    <rc><c>Ag</c><c>   2</c></rc>
    <rc><c>Ag</c><c>   2</c></rc>
    <rc><c>Ag</c><c>   2</c></rc>
    <rc><c>Ag</c><c>   2</c></rc>
    <rc><c>Ag</c><c>   2</c></rc>
    <rc><c>Ag</c><c>   2</c></rc>
    <rc><c>Ag</c><c>   2</c></rc>
    <rc><c>Ag</c><c>   2</c></rc>
    <rc><c>Ag</c><c>   2</c></rc>
    <rc><c>Ag</c><c>   2</c></rc>
    <rc><c>Ag</c><c>   2</c></rc>
    <rc><c>Ag</c><c>   2</c></rc>
    <rc><c>Ag</c><c>   2</c></rc>
    <rc><c>Ag</c><c>   2</c></rc>
    <rc><c>Ag</c><c>   2</c></rc>
    <rc><c>Ag</c><c>   2</c></rc>
    <rc><c>Ag</c><c>   2</c></rc>
    <rc><c>Ag</c><c>   2</c></rc>
    <rc><c>Ag</c><c>   2</c></rc>
    <rc><c>Ag</c><c>   2</c></rc>
    <rc><c>Ag</c><c>   2</c></rc>
    <rc><c>Ag</c><c>   2</c></rc>
    <rc><c>Ag</c><c>   2</c></rc>
    <rc><c>Ag</c><c>   2</c></rc>
    <rc><c>Ag</c><c>   2</c></rc>
    <rc><c>Ag</c><c>   2</c></rc>
    <rc><c>Ag</c><c>   2</c></rc>
    <rc><c>Ag</c><c>   2</c></rc>
    <rc><c>Ag</c><c>   2</c></rc>
    <rc><c>Ag</c><c>   2</c></rc>
    <rc><c>Ag</c><c>   2</c></rc>
    <rc><c>Ag</c><c>   2</c></rc>
    <rc><c>Ag</c><c>   2</c></rc>
    <rc><c>Ag</c><c>   2</c></rc>
    <rc><c>Ag</c><c>   2</c></rc>
    <rc><c>Ag</c><c>   2</c></rc>
    <rc><c>Ag</c><c>   2</c></rc>
    <rc><c>Ag</c><c>   2</c></rc>
    <rc><c>Ag</c><c>   2</c></rc>
    <rc><c>Ag</c><c>   2</c></rc>
    <rc><c>Ag</c><c>   2</c></rc>
    <rc><c>Ag</c><c>   2</c></rc>
    <rc><c>Ag</c><c>   2</c></rc>
    <rc><c>Ag</c><c>   2</c></rc>
    <rc><c>Ag</c><c>   2</c></rc>
    <rc><c>Ag</c><c>   2</c></rc>
    <rc><c>Ag</c><c>   2</c></rc>
    <rc><c>Ag</c><c>   2</c></rc>
    <rc><c>Ag</c><c>   2</c></rc>
    <rc><c>Ag</c><c>   2</c></rc>
    <rc><c>Ag</c><c>   2</c></rc>
    <rc><c>Ag</c><c>   2</c></rc>
    <rc><c>Ag</c><c>   2</c></rc>
    <rc><c>Ag</c><c>   2</c></rc>
    <rc><c>Ag</c><c>   2</c></rc>
    <rc><c>Ag</c><c>   2</c></rc>
    <rc><c>Ag</c><c>   2</c></rc>
    <rc><c>Ag</c><c>   2</c></rc>
    <rc><c>Ag</c><c>   2</c></rc>
    <rc><c>Ag</c><c>   2</c></rc>
    <rc><c>Ag</c><c>   2</c></rc>
    <rc><c>Ag</c><c>   2</c></rc>
    <rc><c>Ag</c><c>   2</c></rc>
    <rc><c>Ag</c><c>   2</c></rc>
    <rc><c>Ag</c><c>   2</c></rc>
    <rc><c>Ag</c><c>   2</c></rc>
    <rc><c>Ag</c><c>   2</c></rc>
    <rc><c>Ag</c><c>   2</c></rc>
    <rc><c>Ag</c><c>   2</c></rc>
    <rc><c>Ag</c><c>   2</c></rc>
    <rc><c>Ag</c><c>   2</c></rc>
    <rc><c>Ag</c><c>   2</c></rc>
    <rc><c>Ag</c><c>   2</c></rc>
    <rc><c>Ag</c><c>   2</c></rc>
    <rc><c>Ag</c><c>   2</c></rc>
    <rc><c>Ag</c><c>   2</c></rc>
    <rc><c>Ag</c><c>   2</c></rc>
    <rc><c>Ag</c><c>   2</c></rc>
    <rc><c>Ag</c><c>   2</c></rc>
    <rc><c>Ag</c><c>   2</c></rc>
   </set>
  </array>
  <array name="atomtypes" >
   <dimension dim="1">type</dimension>
   <field type="int">atomspertype</field>
   <field type="string">element</field>
   <field>mass</field>
   <field>valence</field>
   <field type="string">pseudopotential</field>
   <set>
    <rc><c>  64</c><c>Se</c><c>     78.96000000</c><c>      6.00000000</c><c>  PAW_PBE Se 06Sep2000                  </c></rc>
    <rc><c> 128</c><c>Ag</c><c>    107.86800000</c><c>     11.00000000</c><c>  PAW_PBE Ag 02Apr2005                  </c></rc>
   </set>
  </array>
 </atominfo>
 <structure name="initialpos" >
  <crystal>
   <varray name="basis" >
    <v>      17.67434300       0.00000000       0.02590756 </v>
    <v>       0.00000000      13.77516210       0.00000000 </v>
    <v>      -4.23144168       0.00000000      15.22594286 </v>
   </varray>
   <i name="volume">   3708.52383470 </i>
   <varray name="rec_basis" >
    <v>       0.05655615       0.00000000       0.01571752 </v>
    <v>       0.00000000       0.07259443       0.00000000 </v>
    <v>      -0.00009623       0.00000000       0.06565063 </v>
   </varray>
  </crystal>
  <varray name="positions" >
   <v>       0.08031353       0.12413882       0.07841826 </v>
   <v>       0.33031353       0.12413882       0.07841826 </v>
   <v>       0.58031353       0.12413882       0.07841826 </v>
   <v>       0.83031353       0.12413882       0.07841826 </v>
   <v>       0.08031353       0.62413882       0.07841826 </v>
   <v>       0.33031353       0.62413882       0.07841826 </v>
   <v>       0.58031353       0.62413882       0.07841826 </v>
   <v>       0.83031353       0.62413882       0.07841826 </v>
   <v>       0.08031353       0.12413882       0.57841826 </v>
   <v>       0.33031353       0.12413882       0.57841826 </v>
   <v>       0.58031353       0.12413882       0.57841826 </v>
   <v>       0.83031353       0.12413882       0.57841826 </v>
   <v>       0.08031353       0.62413882       0.57841826 </v>
   <v>       0.33031353       0.62413882       0.57841826 </v>
   <v>       0.58031353       0.62413882       0.57841826 </v>
   <v>       0.83031353       0.62413882       0.57841826 </v>
   <v>       0.04468646       0.37413882       0.17158168 </v>
   <v>       0.29468646       0.37413882       0.17158168 </v>
   <v>       0.54468646       0.37413882       0.17158168 </v>
   <v>       0.79468646       0.37413882       0.17158168 </v>
   <v>       0.04468646       0.87413882       0.17158168 </v>
   <v>       0.29468646       0.87413882       0.17158168 </v>
   <v>       0.54468646       0.87413882       0.17158168 </v>
   <v>       0.79468646       0.87413882       0.17158168 </v>
   <v>       0.04468646       0.37413882       0.67158168 </v>
   <v>       0.29468646       0.37413882       0.67158168 </v>
   <v>       0.54468646       0.37413882       0.67158168 </v>
   <v>       0.79468646       0.37413882       0.67158168 </v>
   <v>       0.04468646       0.87413882       0.67158168 </v>
   <v>       0.29468646       0.87413882       0.67158168 </v>
   <v>       0.54468646       0.87413882       0.67158168 </v>
   <v>       0.79468646       0.87413882       0.67158168 </v>
   <v>       0.16968646       0.37586118       0.42158168 </v>
   <v>       0.41968646       0.37586118       0.42158168 </v>
   <v>       0.66968646       0.37586118       0.42158168 </v>
   <v>       0.91968646       0.37586118       0.42158168 </v>
   <v>       0.16968646       0.87586118       0.42158168 </v>
   <v>       0.41968646       0.87586118       0.42158168 </v>
   <v>       0.66968646       0.87586118       0.42158168 </v>
   <v>       0.91968646       0.87586118       0.42158168 </v>
   <v>       0.16968646       0.37586118       0.92158168 </v>
   <v>       0.41968646       0.37586118       0.92158168 </v>
   <v>       0.66968646       0.37586118       0.92158168 </v>
   <v>       0.91968646       0.37586118       0.92158168 </v>
   <v>       0.16968646       0.87586118       0.92158168 </v>
   <v>       0.41968646       0.87586118       0.92158168 </v>
   <v>       0.66968646       0.87586118       0.92158168 </v>
   <v>       0.91968646       0.87586118       0.92158168 </v>
   <v>       0.20531353       0.12586118       0.32841826 </v>
   <v>       0.45531353       0.12586118       0.32841826 </v>
   <v>       0.70531353       0.12586118       0.32841826 </v>
   <v>       0.95531353       0.12586118       0.32841826 </v>
   <v>       0.20531353       0.62586118       0.32841826 </v>
   <v>       0.45531353       0.62586118       0.32841826 </v>
   <v>       0.70531353       0.62586118       0.32841826 </v>
   <v>       0.95531353       0.62586118       0.32841826 </v>
   <v>       0.20531353       0.12586118       0.82841826 </v>
   <v>       0.45531353       0.12586118       0.82841826 </v>
   <v>       0.70531353       0.12586118       0.82841826 </v>
   <v>       0.95531353       0.12586118       0.82841826 </v>
   <v>       0.20531353       0.62586118       0.82841826 </v>
   <v>       0.45531353       0.62586118       0.82841826 </v>
   <v>       0.70531353       0.62586118       0.82841826 </v>
   <v>       0.95531353       0.62586118       0.82841826 </v>
   <v>       0.19124642       0.01122259       0.17003418 </v>
   <v>       0.44181221       0.01122259       0.17003418 </v>
   <v>       0.69181221       0.01122259       0.17003418 </v>
   <v>       0.94181221       0.01122259       0.17003418 </v>
   <v>       0.19181221       0.51122259       0.17003418 </v>
   <v>       0.44181221       0.51122259       0.17003418 </v>
   <v>       0.69181221       0.51122259       0.17003418 </v>
   <v>       0.94181221       0.51122259       0.17003418 </v>
   <v>       0.19181221       0.01122259       0.67003418 </v>
   <v>       0.44181221       0.01122259       0.67003418 </v>
   <v>       0.69181221       0.01122259       0.67003418 </v>
   <v>       0.94181221       0.01122259       0.67003418 </v>
   <v>       0.19181221       0.51122259       0.67003418 </v>
   <v>       0.44181221       0.51122259       0.67003418 </v>
   <v>       0.69181221       0.51122259       0.67003418 </v>
   <v>       0.94181221       0.51122259       0.67003418 </v>
   <v>       0.18318778       0.26122259       0.07996576 </v>
   <v>       0.43318778       0.26122259       0.07996576 </v>
   <v>       0.68318778       0.26122259       0.07996576 </v>
   <v>       0.93318778       0.26122259       0.07996576 </v>
   <v>       0.18318778       0.76122259       0.07996576 </v>
   <v>       0.43318778       0.76122259       0.07996576 </v>
   <v>       0.68318778       0.76122259       0.07996576 </v>
   <v>       0.93318778       0.76122259       0.07996576 </v>
   <v>       0.18318778       0.26122259       0.57996576 </v>
   <v>       0.43318778       0.26122259       0.57996576 </v>
   <v>       0.68318778       0.26122259       0.57996576 </v>
   <v>       0.93318778       0.26122259       0.57996576 </v>
   <v>       0.18318778       0.76122259       0.57996576 </v>
   <v>       0.43318778       0.76122259       0.57996576 </v>
   <v>       0.68318778       0.76122259       0.57996576 </v>
   <v>       0.93318778       0.76122259       0.57996576 </v>
   <v>       0.05818778       0.48877741       0.32996576 </v>
   <v>       0.30818778       0.48877741       0.32996576 </v>
   <v>       0.55818778       0.48877741       0.32996576 </v>
   <v>       0.80818778       0.48877741       0.32996576 </v>
   <v>       0.05818778       0.98877741       0.32996576 </v>
   <v>       0.30818778       0.98877741       0.32996576 </v>
   <v>       0.55818778       0.98877741       0.32996576 </v>
   <v>       0.80818778       0.98877741       0.32996576 </v>
   <v>       0.05818778       0.48877741       0.82996576 </v>
   <v>       0.30818778       0.48877741       0.82996576 </v>
   <v>       0.55818778       0.48877741       0.82996576 </v>
   <v>       0.80818778       0.48877741       0.82996576 </v>
   <v>       0.05818778       0.98877741       0.82996576 </v>
   <v>       0.30818778       0.98877741       0.82996576 </v>
   <v>       0.55818778       0.98877741       0.82996576 </v>
   <v>       0.80818778       0.98877741       0.82996576 </v>
   <v>       0.06681221       0.23877741       0.42003418 </v>
   <v>       0.31681221       0.23877741       0.42003418 </v>
   <v>       0.56681221       0.23877741       0.42003418 </v>
   <v>       0.81681221       0.23877741       0.42003418 </v>
   <v>       0.06681221       0.73877741       0.42003418 </v>
   <v>       0.31681221       0.73877741       0.42003418 </v>
   <v>       0.56681221       0.73877741       0.42003418 </v>
   <v>       0.81681221       0.73877741       0.42003418 </v>
   <v>       0.06681221       0.23877741       0.92003418 </v>
   <v>       0.31681221       0.23877741       0.92003418 </v>
   <v>       0.56681221       0.23877741       0.92003418 </v>
   <v>       0.81681221       0.23877741       0.92003418 </v>
   <v>       0.06681221       0.73877741       0.92003418 </v>
   <v>       0.31681221       0.73877741       0.92003418 </v>
   <v>       0.56681221       0.73877741       0.92003418 </v>
   <v>       0.81681221       0.73877741       0.92003418 </v>
   <v>       0.05608512       0.18037250       0.23351950 </v>
   <v>       0.30608512       0.18037250       0.23351950 </v>
   <v>       0.55608512       0.18037250       0.23351950 </v>
   <v>       0.80608512       0.18037250       0.23351950 </v>
   <v>       0.05608512       0.68037250       0.23351950 </v>
   <v>       0.30608512       0.68037250       0.23351950 </v>
   <v>       0.55608512       0.68037250       0.23351950 </v>
   <v>       0.80608512       0.68037250       0.23351950 </v>
   <v>       0.05608512       0.18037250       0.73351950 </v>
   <v>       0.30608512       0.18037250       0.73351950 </v>
   <v>       0.55608512       0.18037250       0.73351950 </v>
   <v>       0.80608512       0.18037250       0.73351950 </v>
   <v>       0.05608512       0.68037250       0.73351950 </v>
   <v>       0.30608512       0.68037250       0.73351950 </v>
   <v>       0.55608512       0.68037250       0.73351950 </v>
   <v>       0.80608512       0.68037250       0.73351950 </v>
   <v>       0.06891487       0.43037250       0.01648043 </v>
   <v>       0.31891487       0.43037250       0.01648043 </v>
   <v>       0.56891487       0.43037250       0.01648043 </v>
   <v>       0.81891487       0.43037250       0.01648043 </v>
   <v>       0.06891487       0.93037250       0.01648043 </v>
   <v>       0.31891487       0.93037250       0.01648043 </v>
   <v>       0.56891487       0.93037250       0.01648043 </v>
   <v>       0.81891487       0.93037250       0.01648043 </v>
   <v>       0.06891487       0.43037250       0.51648043 </v>
   <v>       0.31891487       0.43037250       0.51648043 </v>
   <v>       0.56891487       0.43037250       0.51648043 </v>
   <v>       0.81891487       0.43037250       0.51648043 </v>
   <v>       0.06891487       0.93037250       0.51648043 </v>
   <v>       0.31891487       0.93037250       0.51648043 </v>
   <v>       0.56891487       0.93037250       0.51648043 </v>
   <v>       0.81891487       0.93037250       0.51648043 </v>
   <v>       0.19391487       0.31962750       0.26648043 </v>
   <v>       0.44391487       0.31962750       0.26648043 </v>
   <v>       0.69391487       0.31962750       0.26648043 </v>
   <v>       0.94391487       0.31962750       0.26648043 </v>
   <v>       0.19391487       0.81962750       0.26648043 </v>
   <v>       0.44391487       0.81962750       0.26648043 </v>
   <v>       0.69391487       0.81962750       0.26648043 </v>
   <v>       0.94391487       0.81962750       0.26648043 </v>
   <v>       0.19391487       0.31962750       0.76648043 </v>
   <v>       0.44391487       0.31962750       0.76648043 </v>
   <v>       0.69391487       0.31962750       0.76648043 </v>
   <v>       0.94391487       0.31962750       0.76648043 </v>
   <v>       0.19391487       0.81962750       0.76648043 </v>
   <v>       0.44391487       0.81962750       0.76648043 </v>
   <v>       0.69391487       0.81962750       0.76648043 </v>
   <v>       0.94391487       0.81962750       0.76648043 </v>
   <v>       0.18108512       0.06962750       0.48351950 </v>
   <v>       0.43108512       0.06962750       0.48351950 </v>
   <v>       0.68108512       0.06962750       0.48351950 </v>
   <v>       0.93108512       0.06962750       0.48351950 </v>
   <v>       0.18108512       0.56962750       0.48351950 </v>
   <v>       0.43108512       0.56962750       0.48351950 </v>
   <v>       0.68108512       0.56962750       0.48351950 </v>
   <v>       0.93108512       0.56962750       0.48351950 </v>
   <v>       0.18108512       0.06962750       0.98351950 </v>
   <v>       0.43108512       0.06962750       0.98351950 </v>
   <v>       0.68108512       0.06962750       0.98351950 </v>
   <v>       0.93108512       0.06962750       0.98351950 </v>
   <v>       0.18108512       0.56962750       0.98351950 </v>
   <v>       0.43108512       0.56962750       0.98351950 </v>
   <v>       0.68108512       0.56962750       0.98351950 </v>
   <v>       0.93108512       0.56962750       0.98351950 </v>
  </varray>
 </structure>
 <calculation>
  <scstep>
   <time name="dav"> 2400.53 2406.98</time>
   <time name="total"> 2405.56 2412.03</time>
   <energy>
    <i name="alphaZ">   6580.02941619 </i>
    <i name="ewald">-132336.58979349 </i>
    <i name="hartreedc"> -32543.83262530 </i>
    <i name="XCdc">  -1230.85746611 </i>
    <i name="pawpsdc"> 163058.89803092 </i>
    <i name="pawaedc">-156650.78792849 </i>
    <i name="eentropy">     -0.05495907 </i>
    <i name="bandstr">  18043.22933493 </i>
    <i name="atom"> 149175.97080046 </i>
    <i name="e_fr_energy">  14096.00481004 </i>
    <i name="e_wo_entrp">  14096.05976911 </i>
    <i name="e_0_energy">  14096.03228957 </i>
   </energy>
  </scstep>
  <scstep>
   <time name="dav"> 2511.68 2518.23</time>
   <time name="total"> 2511.69 2518.24</time>
   <energy>
    <i name="e_fr_energy">    198.74726714 </i>
    <i name="e_wo_entrp">    198.75914987 </i>
    <i name="e_0_energy">    198.75320851 </i>
   </energy>
  </scstep>
  <scstep>
   <time name="dav"> 2599.67 2606.38</time>
   <time name="total"> 2599.68 2606.38</time>
   <energy>
    <i name="e_fr_energy">   -655.05421194 </i>
    <i name="e_wo_entrp">   -655.04736801 </i>
    <i name="e_0_energy">   -655.05078998 </i>
   </energy>
  </scstep>
  <scstep>
   <time name="dav"> 2564.00 2570.77</time>
   <time name="total"> 2564.01 2570.78</time>
   <energy>
    <i name="e_fr_energy">   -676.15592256 </i>
    <i name="e_wo_entrp">   -676.14823408 </i>
    <i name="e_0_energy">   -676.15207832 </i>
   </energy>
  </scstep>
  <scstep>
   <time name="dav"> 2601.79 2608.45</time>
   <time name="total"> 2629.52 2636.26</time>
   <energy>
    <i name="e_fr_energy">   -676.43106473 </i>
    <i name="e_wo_entrp">   -676.42337384 </i>
    <i name="e_0_energy">   -676.42721928 </i>
   </energy>
  </scstep>
  <scstep>
   <time name="dav"> 2538.32 2544.90</time>
   <time name="total"> 2570.89 2577.55</time>
   <energy>
    <i name="e_fr_energy">   -676.41962315 </i>
    <i name="e_wo_entrp">   -676.41195040 </i>
    <i name="e_0_energy">   -676.41578677 </i>
   </energy>
  </scstep>
  <scstep>
   <time name="dav"> 2606.49 2613.24</time>
   <time name="total"> 2639.02 2645.85</time>
   <energy>
    <i name="e_fr_energy">   -676.41999059 </i>
    <i name="e_wo_entrp">   -676.41231939 </i>
    <i name="e_0_energy">   -676.41615499 </i>
   </energy>
  </scstep>
  <scstep>
   <time name="dav"> 2566.46 2573.17</time>
   <time name="total"> 2599.28 2606.09</time>
   <energy>
    <i name="e_fr_energy">   -676.42000116 </i>
    <i name="e_wo_entrp">   -676.41233037 </i>
    <i name="e_0_energy">   -676.41616577 </i>
   </energy>
  </scstep>
  <scstep>
   <time name="dav"> 2582.99 2589.67</time>
   <time name="total"> 2618.78 2625.56</time>
   <energy>
    <i name="e_fr_energy">   -676.41999840 </i>
    <i name="e_wo_entrp">   -676.41232796 </i>
    <i name="e_0_energy">   -676.41616318 </i>
   </energy>
  </scstep>
  <scstep>
   <time name="dav"> 2553.43 2560.00</time>
   <time name="total"> 2587.24 2593.89</time>
   <energy>
    <i name="e_fr_energy">   -676.41999736 </i>
    <i name="e_wo_entrp">   -676.41232689 </i>
    <i name="e_0_energy">   -676.41616213 </i>
   </energy>
  </scstep>
  <scstep>
   <time name="dav"> 2555.11 2561.67</time>
   <time name="total"> 2588.76 2595.41</time>
   <energy>
    <i name="e_fr_energy">   -676.41999706 </i>
    <i name="e_wo_entrp">   -676.41232656 </i>
    <i name="e_0_energy">   -676.41616181 </i>
   </energy>
  </scstep>
  <scstep>
   <time name="dav"> 1804.74 1809.32</time>
   <time name="total"> 1832.70 1837.35</time>
   <energy>
    <i name="e_fr_energy">   -676.41999704 </i>
    <i name="e_wo_entrp">   -676.41232651 </i>
    <i name="e_0_energy">   -676.41616178 </i>
   </energy>
  </scstep>
  <scstep>
   <time name="dav"> 1098.39 1101.18</time>
   <time name="total"> 1125.50 1128.36</time>
   <energy>
    <i name="e_fr_energy">   -676.41999707 </i>
    <i name="e_wo_entrp">   -676.41232654 </i>
    <i name="e_0_energy">   -676.41616180 </i>
   </energy>
  </scstep>
  <scstep>
   <time name="dav"> 1576.52 1580.52</time>
   <time name="total"> 1580.74 1584.75</time>
   <energy>
    <i name="alphaZ">   6580.02941619 </i>
    <i name="ewald">-132336.58979349 </i>
    <i name="hartreedc"> -32543.89004756 </i>
    <i name="XCdc">  -1230.85631990 </i>
    <i name="pawpsdc"> 163058.97803166 </i>
    <i name="pawaedc">-156650.90768934 </i>
    <i name="eentropy">     -0.00767052 </i>
    <i name="bandstr">   3270.85327545 </i>
    <i name="atom"> 149175.97080046 </i>
    <i name="e_fr_energy">   -676.41999706 </i>
    <i name="e_wo_entrp">   -676.41232653 </i>
    <i name="e_0_energy">   -676.41616180 </i>
   </energy>
  </scstep>
  <structure>
   <crystal>
    <varray name="basis" >
     <v>      17.67434300       0.00000000       0.02590756 </v>
     <v>       0.00000000      13.77516210       0.00000000 </v>
     <v>      -4.23144168       0.00000000      15.22594286 </v>
    </varray>
    <i name="volume">   3708.52383470 </i>
    <varray name="rec_basis" >
     <v>       0.05655615       0.00000000       0.01571752 </v>
     <v>       0.00000000       0.07259443       0.00000000 </v>
     <v>      -0.00009623       0.00000000       0.06565063 </v>
    </varray>
   </crystal>
   <varray name="positions" >
    <v>       0.08031353       0.12413882       0.07841826 </v>
    <v>       0.33031353       0.12413882       0.07841826 </v>
    <v>       0.58031353       0.12413882       0.07841826 </v>
    <v>       0.83031353       0.12413882       0.07841826 </v>
    <v>       0.08031353       0.62413882       0.07841826 </v>
    <v>       0.33031353       0.62413882       0.07841826 </v>
    <v>       0.58031353       0.62413882       0.07841826 </v>
    <v>       0.83031353       0.62413882       0.07841826 </v>
    <v>       0.08031353       0.12413882       0.57841826 </v>
    <v>       0.33031353       0.12413882       0.57841826 </v>
    <v>       0.58031353       0.12413882       0.57841826 </v>
    <v>       0.83031353       0.12413882       0.57841826 </v>
    <v>       0.08031353       0.62413882       0.57841826 </v>
    <v>       0.33031353       0.62413882       0.57841826 </v>
    <v>       0.58031353       0.62413882       0.57841826 </v>
    <v>       0.83031353       0.62413882       0.57841826 </v>
    <v>       0.04468646       0.37413882       0.17158168 </v>
    <v>       0.29468646       0.37413882       0.17158168 </v>
    <v>       0.54468646       0.37413882       0.17158168 </v>
    <v>       0.79468646       0.37413882       0.17158168 </v>
    <v>       0.04468646       0.87413882       0.17158168 </v>
    <v>       0.29468646       0.87413882       0.17158168 </v>
    <v>       0.54468646       0.87413882       0.17158168 </v>
    <v>       0.79468646       0.87413882       0.17158168 </v>
    <v>       0.04468646       0.37413882       0.67158168 </v>
    <v>       0.29468646       0.37413882       0.67158168 </v>
    <v>       0.54468646       0.37413882       0.67158168 </v>
    <v>       0.79468646       0.37413882       0.67158168 </v>
    <v>       0.04468646       0.87413882       0.67158168 </v>
    <v>       0.29468646       0.87413882       0.67158168 </v>
    <v>       0.54468646       0.87413882       0.67158168 </v>
    <v>       0.79468646       0.87413882       0.67158168 </v>
    <v>       0.16968646       0.37586118       0.42158168 </v>
    <v>       0.41968646       0.37586118       0.42158168 </v>
    <v>       0.66968646       0.37586118       0.42158168 </v>
    <v>       0.91968646       0.37586118       0.42158168 </v>
    <v>       0.16968646       0.87586118       0.42158168 </v>
    <v>       0.41968646       0.87586118       0.42158168 </v>
    <v>       0.66968646       0.87586118       0.42158168 </v>
    <v>       0.91968646       0.87586118       0.42158168 </v>
    <v>       0.16968646       0.37586118       0.92158168 </v>
    <v>       0.41968646       0.37586118       0.92158168 </v>
    <v>       0.66968646       0.37586118       0.92158168 </v>
    <v>       0.91968646       0.37586118       0.92158168 </v>
    <v>       0.16968646       0.87586118       0.92158168 </v>
    <v>       0.41968646       0.87586118       0.92158168 </v>
    <v>       0.66968646       0.87586118       0.92158168 </v>
    <v>       0.91968646       0.87586118       0.92158168 </v>
    <v>       0.20531353       0.12586118       0.32841826 </v>
    <v>       0.45531353       0.12586118       0.32841826 </v>
    <v>       0.70531353       0.12586118       0.32841826 </v>
    <v>       0.95531353       0.12586118       0.32841826 </v>
    <v>       0.20531353       0.62586118       0.32841826 </v>
    <v>       0.45531353       0.62586118       0.32841826 </v>
    <v>       0.70531353       0.62586118       0.32841826 </v>
    <v>       0.95531353       0.62586118       0.32841826 </v>
    <v>       0.20531353       0.12586118       0.82841826 </v>
    <v>       0.45531353       0.12586118       0.82841826 </v>
    <v>       0.70531353       0.12586118       0.82841826 </v>
    <v>       0.95531353       0.12586118       0.82841826 </v>
    <v>       0.20531353       0.62586118       0.82841826 </v>
    <v>       0.45531353       0.62586118       0.82841826 </v>
    <v>       0.70531353       0.62586118       0.82841826 </v>
    <v>       0.95531353       0.62586118       0.82841826 </v>
    <v>       0.19124642       0.01122259       0.17003418 </v>
    <v>       0.44181221       0.01122259       0.17003418 </v>
    <v>       0.69181221       0.01122259       0.17003418 </v>
    <v>       0.94181221       0.01122259       0.17003418 </v>
    <v>       0.19181221       0.51122259       0.17003418 </v>
    <v>       0.44181221       0.51122259       0.17003418 </v>
    <v>       0.69181221       0.51122259       0.17003418 </v>
    <v>       0.94181221       0.51122259       0.17003418 </v>
    <v>       0.19181221       0.01122259       0.67003418 </v>
    <v>       0.44181221       0.01122259       0.67003418 </v>
    <v>       0.69181221       0.01122259       0.67003418 </v>
    <v>       0.94181221       0.01122259       0.67003418 </v>
    <v>       0.19181221       0.51122259       0.67003418 </v>
    <v>       0.44181221       0.51122259       0.67003418 </v>
    <v>       0.69181221       0.51122259       0.67003418 </v>
    <v>       0.94181221       0.51122259       0.67003418 </v>
    <v>       0.18318778       0.26122259       0.07996576 </v>
    <v>       0.43318778       0.26122259       0.07996576 </v>
    <v>       0.68318778       0.26122259       0.07996576 </v>
    <v>       0.93318778       0.26122259       0.07996576 </v>
    <v>       0.18318778       0.76122259       0.07996576 </v>
    <v>       0.43318778       0.76122259       0.07996576 </v>
    <v>       0.68318778       0.76122259       0.07996576 </v>
    <v>       0.93318778       0.76122259       0.07996576 </v>
    <v>       0.18318778       0.26122259       0.57996576 </v>
    <v>       0.43318778       0.26122259       0.57996576 </v>
    <v>       0.68318778       0.26122259       0.57996576 </v>
    <v>       0.93318778       0.26122259       0.57996576 </v>
    <v>       0.18318778       0.76122259       0.57996576 </v>
    <v>       0.43318778       0.76122259       0.57996576 </v>
    <v>       0.68318778       0.76122259       0.57996576 </v>
    <v>       0.93318778       0.76122259       0.57996576 </v>
    <v>       0.05818778       0.48877741       0.32996576 </v>
    <v>       0.30818778       0.48877741       0.32996576 </v>
    <v>       0.55818778       0.48877741       0.32996576 </v>
    <v>       0.80818778       0.48877741       0.32996576 </v>
    <v>       0.05818778       0.98877741       0.32996576 </v>
    <v>       0.30818778       0.98877741       0.32996576 </v>
    <v>       0.55818778       0.98877741       0.32996576 </v>
    <v>       0.80818778       0.98877741       0.32996576 </v>
    <v>       0.05818778       0.48877741       0.82996576 </v>
    <v>       0.30818778       0.48877741       0.82996576 </v>
    <v>       0.55818778       0.48877741       0.82996576 </v>
    <v>       0.80818778       0.48877741       0.82996576 </v>
    <v>       0.05818778       0.98877741       0.82996576 </v>
    <v>       0.30818778       0.98877741       0.82996576 </v>
    <v>       0.55818778       0.98877741       0.82996576 </v>
    <v>       0.80818778       0.98877741       0.82996576 </v>
    <v>       0.06681221       0.23877741       0.42003418 </v>
    <v>       0.31681221       0.23877741       0.42003418 </v>
    <v>       0.56681221       0.23877741       0.42003418 </v>
    <v>       0.81681221       0.23877741       0.42003418 </v>
    <v>       0.06681221       0.73877741       0.42003418 </v>
    <v>       0.31681221       0.73877741       0.42003418 </v>
    <v>       0.56681221       0.73877741       0.42003418 </v>
    <v>       0.81681221       0.73877741       0.42003418 </v>
    <v>       0.06681221       0.23877741       0.92003418 </v>
    <v>       0.31681221       0.23877741       0.92003418 </v>
    <v>       0.56681221       0.23877741       0.92003418 </v>
    <v>       0.81681221       0.23877741       0.92003418 </v>
    <v>       0.06681221       0.73877741       0.92003418 </v>
    <v>       0.31681221       0.73877741       0.92003418 </v>
    <v>       0.56681221       0.73877741       0.92003418 </v>
    <v>       0.81681221       0.73877741       0.92003418 </v>
    <v>       0.05608512       0.18037250       0.23351950 </v>
    <v>       0.30608512       0.18037250       0.23351950 </v>
    <v>       0.55608512       0.18037250       0.23351950 </v>
    <v>       0.80608512       0.18037250       0.23351950 </v>
    <v>       0.05608512       0.68037250       0.23351950 </v>
    <v>       0.30608512       0.68037250       0.23351950 </v>
    <v>       0.55608512       0.68037250       0.23351950 </v>
    <v>       0.80608512       0.68037250       0.23351950 </v>
    <v>       0.05608512       0.18037250       0.73351950 </v>
    <v>       0.30608512       0.18037250       0.73351950 </v>
    <v>       0.55608512       0.18037250       0.73351950 </v>
    <v>       0.80608512       0.18037250       0.73351950 </v>
    <v>       0.05608512       0.68037250       0.73351950 </v>
    <v>       0.30608512       0.68037250       0.73351950 </v>
    <v>       0.55608512       0.68037250       0.73351950 </v>
    <v>       0.80608512       0.68037250       0.73351950 </v>
    <v>       0.06891487       0.43037250       0.01648043 </v>
    <v>       0.31891487       0.43037250       0.01648043 </v>
    <v>       0.56891487       0.43037250       0.01648043 </v>
    <v>       0.81891487       0.43037250       0.01648043 </v>
    <v>       0.06891487       0.93037250       0.01648043 </v>
    <v>       0.31891487       0.93037250       0.01648043 </v>
    <v>       0.56891487       0.93037250       0.01648043 </v>
    <v>       0.81891487       0.93037250       0.01648043 </v>
    <v>       0.06891487       0.43037250       0.51648043 </v>
    <v>       0.31891487       0.43037250       0.51648043 </v>
    <v>       0.56891487       0.43037250       0.51648043 </v>
    <v>       0.81891487       0.43037250       0.51648043 </v>
    <v>       0.06891487       0.93037250       0.51648043 </v>
    <v>       0.31891487       0.93037250       0.51648043 </v>
    <v>       0.56891487       0.93037250       0.51648043 </v>
    <v>       0.81891487       0.93037250       0.51648043 </v>
    <v>       0.19391487       0.31962750       0.26648043 </v>
    <v>       0.44391487       0.31962750       0.26648043 </v>
    <v>       0.69391487       0.31962750       0.26648043 </v>
    <v>       0.94391487       0.31962750       0.26648043 </v>
    <v>       0.19391487       0.81962750       0.26648043 </v>
    <v>       0.44391487       0.81962750       0.26648043 </v>
    <v>       0.69391487       0.81962750       0.26648043 </v>
    <v>       0.94391487       0.81962750       0.26648043 </v>
    <v>       0.19391487       0.31962750       0.76648043 </v>
    <v>       0.44391487       0.31962750       0.76648043 </v>
    <v>       0.69391487       0.31962750       0.76648043 </v>
    <v>       0.94391487       0.31962750       0.76648043 </v>
    <v>       0.19391487       0.81962750       0.76648043 </v>
    <v>       0.44391487       0.81962750       0.76648043 </v>
    <v>       0.69391487       0.81962750       0.76648043 </v>
    <v>       0.94391487       0.81962750       0.76648043 </v>
    <v>       0.18108512       0.06962750       0.48351950 </v>
    <v>       0.43108512       0.06962750       0.48351950 </v>
    <v>       0.68108512       0.06962750       0.48351950 </v>
    <v>       0.93108512       0.06962750       0.48351950 </v>
    <v>       0.18108512       0.56962750       0.48351950 </v>
    <v>       0.43108512       0.56962750       0.48351950 </v>
    <v>       0.68108512       0.56962750       0.48351950 </v>
    <v>       0.93108512       0.56962750       0.48351950 </v>
    <v>       0.18108512       0.06962750       0.98351950 </v>
    <v>       0.43108512       0.06962750       0.98351950 </v>
    <v>       0.68108512       0.06962750       0.98351950 </v>
    <v>       0.93108512       0.06962750       0.98351950 </v>
    <v>       0.18108512       0.56962750       0.98351950 </v>
    <v>       0.43108512       0.56962750       0.98351950 </v>
    <v>       0.68108512       0.56962750       0.98351950 </v>
    <v>       0.93108512       0.56962750       0.98351950 </v>
   </varray>
  </structure>
  <varray name="forces" >
   <v>      -0.01537857       0.01273296      -0.01286280 </v>
   <v>      -0.00443020      -0.00001197      -0.00226944 </v>
   <v>      -0.00338360       0.00038721      -0.00248079 </v>
   <v>      -0.00362013       0.00039608      -0.00240483 </v>
   <v>      -0.00385855       0.00040493      -0.00243043 </v>
   <v>      -0.00328687      -0.00041535      -0.00296248 </v>
   <v>      -0.00353667       0.00038495      -0.00242779 </v>
   <v>      -0.00360766       0.00033529      -0.00241809 </v>
   <v>      -0.00362414       0.00036233      -0.00250565 </v>
   <v>      -0.00363698       0.00039455      -0.00246139 </v>
   <v>      -0.00355526       0.00038251      -0.00242200 </v>
   <v>      -0.00353187       0.00035768      -0.00232889 </v>
   <v>      -0.00361544       0.00030353      -0.00249933 </v>
   <v>      -0.00360796       0.00034565      -0.00240389 </v>
   <v>      -0.00354678       0.00036867      -0.00238147 </v>
   <v>      -0.00356470       0.00037130      -0.00242625 </v>
   <v>       0.00379103       0.00019984       0.00238366 </v>
   <v>       0.00345557       0.00024271       0.00246976 </v>
   <v>       0.00365731       0.00033483       0.00242572 </v>
   <v>       0.00365819       0.00038297       0.00243460 </v>
   <v>       0.00228830      -0.00015732       0.00292900 </v>
   <v>      -0.00980931       0.01450356       0.00501798 </v>
   <v>       0.00382422       0.00044248       0.00246072 </v>
   <v>       0.00393820       0.00040133       0.00240755 </v>
   <v>       0.00355922       0.00036864       0.00248179 </v>
   <v>       0.00359855       0.00040129       0.00239874 </v>
   <v>       0.00362647       0.00036782       0.00243009 </v>
   <v>       0.00363362       0.00036018       0.00245505 </v>
   <v>       0.00360550       0.00036712       0.00239104 </v>
   <v>       0.00358084       0.00035378       0.00235904 </v>
   <v>       0.00365528       0.00038929       0.00252279 </v>
   <v>       0.00365241       0.00039832       0.00248936 </v>
   <v>       0.00368928      -0.00056934       0.00231530 </v>
   <v>       0.00359043      -0.00030008       0.00244188 </v>
   <v>       0.00365992      -0.00037525       0.00242544 </v>
   <v>       0.00364603      -0.00038855       0.00241624 </v>
   <v>       0.00337288      -0.00038057       0.00247174 </v>
   <v>       0.00369915      -0.00042866       0.00272635 </v>
   <v>       0.00368193      -0.00035904       0.00247142 </v>
   <v>       0.00361716      -0.00031962       0.00247682 </v>
   <v>       0.00343083      -0.00055468       0.00266869 </v>
   <v>       0.00365756      -0.00045921       0.00234693 </v>
   <v>       0.00365815      -0.00035392       0.00242970 </v>
   <v>       0.00364691      -0.00045446       0.00246401 </v>
   <v>       0.00367655      -0.00013851       0.00236804 </v>
   <v>       0.00350380      -0.00036410       0.00246456 </v>
   <v>       0.00367469      -0.00035982       0.00246298 </v>
   <v>       0.00387412      -0.00021265       0.00265554 </v>
   <v>      -0.00252075      -0.00041016      -0.00033264 </v>
   <v>      -0.00389909      -0.00051085      -0.00258011 </v>
   <v>      -0.00351817      -0.00039781      -0.00238499 </v>
   <v>      -0.00347082      -0.00045751      -0.00256490 </v>
   <v>      -0.00373445      -0.00047998      -0.00223440 </v>
   <v>      -0.00339600      -0.00068164      -0.00224944 </v>
   <v>      -0.00355551      -0.00037388      -0.00243562 </v>
   <v>      -0.00354467      -0.00033705      -0.00251840 </v>
   <v>      -0.00365578      -0.00028803      -0.00253390 </v>
   <v>      -0.00355918      -0.00042428      -0.00242780 </v>
   <v>      -0.00356146      -0.00039059      -0.00240840 </v>
   <v>      -0.00339234      -0.00023692      -0.00191666 </v>
   <v>      -0.00368468      -0.00039057      -0.00246131 </v>
   <v>      -0.00358583      -0.00039240      -0.00241913 </v>
   <v>      -0.00355642      -0.00036261      -0.00241166 </v>
   <v>      -0.00363304      -0.00034983      -0.00241737 </v>
   <v>       0.03316836      -0.02323410       0.01674839 </v>
   <v>      -0.00052466       0.00040181      -0.00086007 </v>
   <v>       0.00024898       0.00050614      -0.00078319 </v>
   <v>      -0.00053817       0.00051995      -0.00076175 </v>
   <v>       0.00044675       0.00048685      -0.00072775 </v>
   <v>       0.00030177       0.00048758      -0.00081832 </v>
   <v>       0.00034755       0.00045969      -0.00076837 </v>
   <v>       0.00030143       0.00046022      -0.00073130 </v>
   <v>       0.00040765       0.00046359      -0.00076134 </v>
   <v>       0.00034710       0.00046137      -0.00074038 </v>
   <v>       0.00032856       0.00044995      -0.00077534 </v>
   <v>       0.00034682       0.00041813      -0.00081287 </v>
   <v>       0.00038435       0.00044031      -0.00075016 </v>
   <v>       0.00036462       0.00045410      -0.00075259 </v>
   <v>       0.00034240       0.00045906      -0.00077620 </v>
   <v>       0.00036455       0.00044802      -0.00076719 </v>
   <v>       0.00008592       0.00074072       0.00059092 </v>
[...]
       <r>     2.7506   637.3708  1186.0693 </r>
       <r>     2.8223   696.5953  1236.0494 </r>
       <r>     2.8941   562.5185  1276.4096 </r>
       <r>     2.9658   470.1210  1310.1403 </r>
       <r>     3.0376   462.1981  1343.3026 </r>
       <r>     3.1093   453.9867  1375.8757 </r>
       <r>     3.1811   427.2290  1406.5290 </r>
       <r>     3.2528   362.6117  1432.5460 </r>
       <r>     3.3246   230.0227  1449.0499 </r>
       <r>     3.3963   186.1854  1462.4085 </r>
       <r>     3.4681   185.5935  1475.7247 </r>
       <r>     3.5398   190.3426  1489.3816 </r>
       <r>     3.6116   204.9304  1504.0852 </r>
       <r>     3.6833   180.5212  1517.0374 </r>
       <r>     3.7551   122.1947  1525.8047 </r>
       <r>     3.8268    94.5411  1532.5880 </r>
       <r>     3.8986   100.5012  1539.7988 </r>
       <r>     3.9703   121.0293  1548.4826 </r>
       <r>     4.0421    98.0372  1555.5166 </r>
       <r>     4.1138   101.4572  1562.7961 </r>
       <r>     4.1856   156.5413  1574.0278 </r>
       <r>     4.2573    97.5648  1581.0280 </r>
       <r>     4.3291    87.2391  1587.2873 </r>
       <r>     4.4008    93.4394  1593.9915 </r>
       <r>     4.4726    91.8954  1600.5849 </r>
       <r>     4.5443   148.9211  1611.2698 </r>
       <r>     4.6161   116.7946  1619.6497 </r>
       <r>     4.6878    92.6877  1626.3000 </r>
       <r>     4.7596   112.7497  1634.3897 </r>
       <r>     4.8313    85.7030  1640.5388 </r>
       <r>     4.9031   101.7481  1647.8391 </r>
       <r>     4.9748   169.9157  1660.0304 </r>
       <r>     5.0465   130.5348  1669.3962 </r>
       <r>     5.1183    69.1645  1674.3586 </r>
       <r>     5.1900    93.8902  1681.0952 </r>
       <r>     5.2618    73.8164  1686.3914 </r>
       <r>     5.3335   123.5366  1695.2551 </r>
       <r>     5.4053   143.9385  1705.5825 </r>
       <r>     5.4770   119.3132  1714.1431 </r>
       <r>     5.5488    72.5761  1719.3504 </r>
       <r>     5.6205    93.2172  1726.0386 </r>
       <r>     5.6923   141.1696  1736.1674 </r>
       <r>     5.7640   156.0406  1747.3632 </r>
       <r>     5.8358   106.7950  1755.0256 </r>
       <r>     5.9075   120.2467  1763.6532 </r>
       <r>     5.9793   116.8211  1772.0350 </r>
       <r>     6.0510    85.8066  1778.1916 </r>
       <r>     6.1228    62.4429  1782.6718 </r>
       <r>     6.1945    42.3391  1785.7096 </r>
       <r>     6.2663    37.4010  1788.3931 </r>
       <r>     6.3380    30.4584  1790.5784 </r>
       <r>     6.4098    13.7246  1791.5631 </r>
       <r>     6.4815     7.5321  1792.1036 </r>
       <r>     6.5533     2.4381  1792.2785 </r>
       <r>     6.6250     4.5070  1792.6019 </r>
       <r>     6.6968     2.8372  1792.8054 </r>
       <r>     6.7685     2.3821  1792.9764 </r>
       <r>     6.8403     1.6591  1793.0954 </r>
       <r>     6.9120    11.2620  1793.9034 </r>
       <r>     6.9838    15.0441  1794.9828 </r>
       <r>     7.0555    10.4516  1795.7327 </r>
       <r>     7.1273    10.4700  1796.4839 </r>
       <r>     7.1990    25.4626  1798.3109 </r>
       <r>     7.2708    31.1234  1800.5439 </r>
       <r>     7.3425    18.5081  1801.8719 </r>
       <r>     7.4143    31.9682  1804.1656 </r>
       <r>     7.4860    35.0987  1806.6839 </r>
       <r>     7.5578    37.2219  1809.3545 </r>
       <r>     7.6295    57.2124  1813.4594 </r>
       <r>     7.7013    67.3635  1818.2927 </r>
       <r>     7.7730    72.6302  1823.5038 </r>
       <r>     7.8448    73.5096  1828.7781 </r>
       <r>     7.9165    62.3305  1833.2502 </r>
       <r>     7.9883    57.9781  1837.4101 </r>
       <r>     8.0600    77.6416  1842.9808 </r>
       <r>     8.1318    81.3805  1848.8198 </r>
       <r>     8.2035    83.2110  1854.7901 </r>
       <r>     8.2753    73.4560  1860.0605 </r>
       <r>     8.3470    66.3652  1864.8221 </r>
       <r>     8.4188    73.9868  1870.1306 </r>
       <r>     8.4905    88.7747  1876.5001 </r>
       <r>     8.5623    75.6646  1881.9290 </r>
       <r>     8.6340    57.2709  1886.0381 </r>
       <r>     8.7057    81.1826  1891.8629 </r>
       <r>     8.7775    84.3371  1897.9140 </r>
       <r>     8.8492    57.8699  1902.0661 </r>
       <r>     8.9210    46.0854  1905.3727 </r>
       <r>     8.9927    40.2729  1908.2622 </r>
       <r>     9.0645    52.7127  1912.0443 </r>
       <r>     9.1362    85.6043  1918.1864 </r>
       <r>     9.2080    64.3839  1922.8058 </r>
       <r>     9.2797    49.2549  1926.3398 </r>
       <r>     9.3515    56.8014  1930.4153 </r>
       <r>     9.4232    67.8773  1935.2854 </r>
       <r>     9.4950    63.1436  1939.8159 </r>
       <r>     9.5667    40.8585  1942.7475 </r>
       <r>     9.6385    70.8920  1947.8339 </r>
       <r>     9.7102   103.6937  1955.2738 </r>
       <r>     9.7820   107.6541  1962.9979 </r>
       <r>     9.8537    88.1666  1969.3238 </r>
       <r>     9.9255    76.4563  1974.8094 </r>
       <r>     9.9972    57.8100  1978.9572 </r>
       <r>    10.0690    83.8857  1984.9760 </r>
       <r>    10.1407    88.2136  1991.3052 </r>
       <r>    10.2125   100.0060  1998.4805 </r>
       <r>    10.2842   108.7574  2006.2838 </r>
       <r>    10.3560   113.4424  2014.4232 </r>
       <r>    10.4277   110.1511  2022.3264 </r>
       <r>    10.4995    93.3274  2029.0226 </r>
       <r>    10.5712    73.7172  2034.3117 </r>
       <r>    10.6430    75.8741  2039.7556 </r>
       <r>    10.7147    69.5962  2044.7491 </r>
       <r>    10.7865    67.9071  2049.6213 </r>
       <r>    10.8582    72.3316  2054.8111 </r>
       <r>    10.9300    72.1864  2059.9904 </r>
       <r>    11.0017    55.3692  2063.9630 </r>
       <r>    11.0735    93.0577  2070.6398 </r>
       <r>    11.1452   105.1936  2078.1874 </r>
       <r>    11.2170    80.3332  2083.9512 </r>
       <r>    11.2887    95.2142  2090.7827 </r>
       <r>    11.3605    81.5008  2096.6304 </r>
       <r>    11.4322   106.5749  2104.2770 </r>
       <r>    11.5040   129.7879  2113.5892 </r>
       <r>    11.5757   118.3636  2122.0816 </r>
       <r>    11.6475   105.5192  2129.6525 </r>
       <r>    11.7192    62.7871  2134.1575 </r>
       <r>    11.7910    90.1737  2140.6273 </r>
       <r>    11.8627    50.6983  2144.2649 </r>
       <r>    11.9345    26.9982  2146.2020 </r>
       <r>    12.0062    14.0282  2147.2085 </r>
       <r>    12.0780    19.3866  2148.5995 </r>
       <r>    12.1497    13.1535  2149.5432 </r>
       <r>    12.2215     5.8716  2149.9645 </r>
       <r>    12.2932     0.4931  2149.9999 </r>
       <r>    12.3650     0.0018  2150.0000 </r>
       <r>    12.4367     0.0000  2150.0000 </r>
       <r>    12.5084     0.0000  2150.0000 </r>
       <r>    12.5802     0.0000  2150.0000 </r>
       <r>    12.6519     0.0000  2150.0000 </r>
       <r>    12.7237     0.0000  2150.0000 </r>
       <r>    12.7954     0.0000  2150.0000 </r>
       <r>    12.8672     0.0000  2150.0000 </r>
       <r>    12.9389     0.0000  2150.0000 </r>
       <r>    13.0107     0.0000  2150.0000 </r>
       <r>    13.0824     0.0000  2150.0000 </r>
       <r>    13.1542     0.0000  2150.0000 </r>
      </set>
     </set>
    </array>
   </total>
  </dos>
 </calculation>
 <structure name="finalpos" >
  <crystal>
   <varray name="basis" >
    <v>      17.67434300       0.00000000       0.02590756 </v>
    <v>       0.00000000      13.77516210       0.00000000 </v>
    <v>      -4.23144168       0.00000000      15.22594286 </v>
   </varray>
   <i name="volume">   3708.52383470 </i>
   <varray name="rec_basis" >
    <v>       0.05655615       0.00000000       0.01571752 </v>
    <v>       0.00000000       0.07259443       0.00000000 </v>
    <v>      -0.00009623       0.00000000       0.06565063 </v>
   </varray>
  </crystal>
  <varray name="positions" >
   <v>       0.08031353       0.12413882       0.07841826 </v>
   <v>       0.33031353       0.12413882       0.07841826 </v>
   <v>       0.58031353       0.12413882       0.07841826 </v>
   <v>       0.83031353       0.12413882       0.07841826 </v>
   <v>       0.08031353       0.62413882       0.07841826 </v>
   <v>       0.33031353       0.62413882       0.07841826 </v>
   <v>       0.58031353       0.62413882       0.07841826 </v>
   <v>       0.83031353       0.62413882       0.07841826 </v>
   <v>       0.08031353       0.12413882       0.57841826 </v>
   <v>       0.33031353       0.12413882       0.57841826 </v>
   <v>       0.58031353       0.12413882       0.57841826 </v>
   <v>       0.83031353       0.12413882       0.57841826 </v>
   <v>       0.08031353       0.62413882       0.57841826 </v>
   <v>       0.33031353       0.62413882       0.57841826 </v>
   <v>       0.58031353       0.62413882       0.57841826 </v>
   <v>       0.83031353       0.62413882       0.57841826 </v>
   <v>       0.04468646       0.37413882       0.17158168 </v>
   <v>       0.29468646       0.37413882       0.17158168 </v>
   <v>       0.54468646       0.37413882       0.17158168 </v>
   <v>       0.79468646       0.37413882       0.17158168 </v>
   <v>       0.04468646       0.87413882       0.17158168 </v>
   <v>       0.29468646       0.87413882       0.17158168 </v>
   <v>       0.54468646       0.87413882       0.17158168 </v>
   <v>       0.79468646       0.87413882       0.17158168 </v>
   <v>       0.04468646       0.37413882       0.67158168 </v>
   <v>       0.29468646       0.37413882       0.67158168 </v>
   <v>       0.54468646       0.37413882       0.67158168 </v>
   <v>       0.79468646       0.37413882       0.67158168 </v>
   <v>       0.04468646       0.87413882       0.67158168 </v>
   <v>       0.29468646       0.87413882       0.67158168 </v>
   <v>       0.54468646       0.87413882       0.67158168 </v>
   <v>       0.79468646       0.87413882       0.67158168 </v>
   <v>       0.16968646       0.37586118       0.42158168 </v>
   <v>       0.41968646       0.37586118       0.42158168 </v>
   <v>       0.66968646       0.37586118       0.42158168 </v>
   <v>       0.91968646       0.37586118       0.42158168 </v>
   <v>       0.16968646       0.87586118       0.42158168 </v>
   <v>       0.41968646       0.87586118       0.42158168 </v>
   <v>       0.66968646       0.87586118       0.42158168 </v>
   <v>       0.91968646       0.87586118       0.42158168 </v>
   <v>       0.16968646       0.37586118       0.92158168 </v>
   <v>       0.41968646       0.37586118       0.92158168 </v>
   <v>       0.66968646       0.37586118       0.92158168 </v>
   <v>       0.91968646       0.37586118       0.92158168 </v>
   <v>       0.16968646       0.87586118       0.92158168 </v>
   <v>       0.41968646       0.87586118       0.92158168 </v>
   <v>       0.66968646       0.87586118       0.92158168 </v>
   <v>       0.91968646       0.87586118       0.92158168 </v>
   <v>       0.20531353       0.12586118       0.32841826 </v>
   <v>       0.45531353       0.12586118       0.32841826 </v>
   <v>       0.70531353       0.12586118       0.32841826 </v>
   <v>       0.95531353       0.12586118       0.32841826 </v>
   <v>       0.20531353       0.62586118       0.32841826 </v>
   <v>       0.45531353       0.62586118       0.32841826 </v>
   <v>       0.70531353       0.62586118       0.32841826 </v>
   <v>       0.95531353       0.62586118       0.32841826 </v>
   <v>       0.20531353       0.12586118       0.82841826 </v>
   <v>       0.45531353       0.12586118       0.82841826 </v>
   <v>       0.70531353       0.12586118       0.82841826 </v>
   <v>       0.95531353       0.12586118       0.82841826 </v>
   <v>       0.20531353       0.62586118       0.82841826 </v>
   <v>       0.45531353       0.62586118       0.82841826 </v>
   <v>       0.70531353       0.62586118       0.82841826 </v>
   <v>       0.95531353       0.62586118       0.82841826 </v>
   <v>       0.19124642       0.01122259       0.17003418 </v>
   <v>       0.44181221       0.01122259       0.17003418 </v>
   <v>       0.69181221       0.01122259       0.17003418 </v>
   <v>       0.94181221       0.01122259       0.17003418 </v>
   <v>       0.19181221       0.51122259       0.17003418 </v>
   <v>       0.44181221       0.51122259       0.17003418 </v>
   <v>       0.69181221       0.51122259       0.17003418 </v>
   <v>       0.94181221       0.51122259       0.17003418 </v>
   <v>       0.19181221       0.01122259       0.67003418 </v>
   <v>       0.44181221       0.01122259       0.67003418 </v>
   <v>       0.69181221       0.01122259       0.67003418 </v>
   <v>       0.94181221       0.01122259       0.67003418 </v>
   <v>       0.19181221       0.51122259       0.67003418 </v>
   <v>       0.44181221       0.51122259       0.67003418 </v>
   <v>       0.69181221       0.51122259       0.67003418 </v>
   <v>       0.94181221       0.51122259       0.67003418 </v>
   <v>       0.18318778       0.26122259       0.07996576 </v>
   <v>       0.43318778       0.26122259       0.07996576 </v>
   <v>       0.68318778       0.26122259       0.07996576 </v>
   <v>       0.93318778       0.26122259       0.07996576 </v>
   <v>       0.18318778       0.76122259       0.07996576 </v>
   <v>       0.43318778       0.76122259       0.07996576 </v>
   <v>       0.68318778       0.76122259       0.07996576 </v>
   <v>       0.93318778       0.76122259       0.07996576 </v>
   <v>       0.18318778       0.26122259       0.57996576 </v>
   <v>       0.43318778       0.26122259       0.57996576 </v>
   <v>       0.68318778       0.26122259       0.57996576 </v>
   <v>       0.93318778       0.26122259       0.57996576 </v>
   <v>       0.18318778       0.76122259       0.57996576 </v>
   <v>       0.43318778       0.76122259       0.57996576 </v>
   <v>       0.68318778       0.76122259       0.57996576 </v>
   <v>       0.93318778       0.76122259       0.57996576 </v>
   <v>       0.05818778       0.48877741       0.32996576 </v>
   <v>       0.30818778       0.48877741       0.32996576 </v>
   <v>       0.55818778       0.48877741       0.32996576 </v>
   <v>       0.80818778       0.48877741       0.32996576 </v>
   <v>       0.05818778       0.98877741       0.32996576 </v>
   <v>       0.30818778       0.98877741       0.32996576 </v>
   <v>       0.55818778       0.98877741       0.32996576 </v>
   <v>       0.80818778       0.98877741       0.32996576 </v>
   <v>       0.05818778       0.48877741       0.82996576 </v>
   <v>       0.30818778       0.48877741       0.82996576 </v>
   <v>       0.55818778       0.48877741       0.82996576 </v>
   <v>       0.80818778       0.48877741       0.82996576 </v>
   <v>       0.05818778       0.98877741       0.82996576 </v>
   <v>       0.30818778       0.98877741       0.82996576 </v>
   <v>       0.55818778       0.98877741       0.82996576 </v>
   <v>       0.80818778       0.98877741       0.82996576 </v>
   <v>       0.06681221       0.23877741       0.42003418 </v>
   <v>       0.31681221       0.23877741       0.42003418 </v>
   <v>       0.56681221       0.23877741       0.42003418 </v>
   <v>       0.81681221       0.23877741       0.42003418 </v>
   <v>       0.06681221       0.73877741       0.42003418 </v>
   <v>       0.31681221       0.73877741       0.42003418 </v>
   <v>       0.56681221       0.73877741       0.42003418 </v>
   <v>       0.81681221       0.73877741       0.42003418 </v>
   <v>       0.06681221       0.23877741       0.92003418 </v>
   <v>       0.31681221       0.23877741       0.92003418 </v>
   <v>       0.56681221       0.23877741       0.92003418 </v>
   <v>       0.81681221       0.23877741       0.92003418 </v>
   <v>       0.06681221       0.73877741       0.92003418 </v>
   <v>       0.31681221       0.73877741       0.92003418 </v>
   <v>       0.56681221       0.73877741       0.92003418 </v>
   <v>       0.81681221       0.73877741       0.92003418 </v>
   <v>       0.05608512       0.18037250       0.23351950 </v>
   <v>       0.30608512       0.18037250       0.23351950 </v>
   <v>       0.55608512       0.18037250       0.23351950 </v>
   <v>       0.80608512       0.18037250       0.23351950 </v>
   <v>       0.05608512       0.68037250       0.23351950 </v>
   <v>       0.30608512       0.68037250       0.23351950 </v>
   <v>       0.55608512       0.68037250       0.23351950 </v>
   <v>       0.80608512       0.68037250       0.23351950 </v>
   <v>       0.05608512       0.18037250       0.73351950 </v>
   <v>       0.30608512       0.18037250       0.73351950 </v>
   <v>       0.55608512       0.18037250       0.73351950 </v>
   <v>       0.80608512       0.18037250       0.73351950 </v>
   <v>       0.05608512       0.68037250       0.73351950 </v>
   <v>       0.30608512       0.68037250       0.73351950 </v>
   <v>       0.55608512       0.68037250       0.73351950 </v>
   <v>       0.80608512       0.68037250       0.73351950 </v>
   <v>       0.06891487       0.43037250       0.01648043 </v>
   <v>       0.31891487       0.43037250       0.01648043 </v>
   <v>       0.56891487       0.43037250       0.01648043 </v>
   <v>       0.81891487       0.43037250       0.01648043 </v>
   <v>       0.06891487       0.93037250       0.01648043 </v>
   <v>       0.31891487       0.93037250       0.01648043 </v>
   <v>       0.56891487       0.93037250       0.01648043 </v>
   <v>       0.81891487       0.93037250       0.01648043 </v>
   <v>       0.06891487       0.43037250       0.51648043 </v>
   <v>       0.31891487       0.43037250       0.51648043 </v>
   <v>       0.56891487       0.43037250       0.51648043 </v>
   <v>       0.81891487       0.43037250       0.51648043 </v>
   <v>       0.06891487       0.93037250       0.51648043 </v>
   <v>       0.31891487       0.93037250       0.51648043 </v>
   <v>       0.56891487       0.93037250       0.51648043 </v>
   <v>       0.81891487       0.93037250       0.51648043 </v>
   <v>       0.19391487       0.31962750       0.26648043 </v>
   <v>       0.44391487       0.31962750       0.26648043 </v>
   <v>       0.69391487       0.31962750       0.26648043 </v>
   <v>       0.94391487       0.31962750       0.26648043 </v>
   <v>       0.19391487       0.81962750       0.26648043 </v>
   <v>       0.44391487       0.81962750       0.26648043 </v>
   <v>       0.69391487       0.81962750       0.26648043 </v>
   <v>       0.94391487       0.81962750       0.26648043 </v>
   <v>       0.19391487       0.31962750       0.76648043 </v>
   <v>       0.44391487       0.31962750       0.76648043 </v>
   <v>       0.69391487       0.31962750       0.76648043 </v>
   <v>       0.94391487       0.31962750       0.76648043 </v>
   <v>       0.19391487       0.81962750       0.76648043 </v>
   <v>       0.44391487       0.81962750       0.76648043 </v>
   <v>       0.69391487       0.81962750       0.76648043 </v>
   <v>       0.94391487       0.81962750       0.76648043 </v>
   <v>       0.18108512       0.06962750       0.48351950 </v>
   <v>       0.43108512       0.06962750       0.48351950 </v>
   <v>       0.68108512       0.06962750       0.48351950 </v>
   <v>       0.93108512       0.06962750       0.48351950 </v>
   <v>       0.18108512       0.56962750       0.48351950 </v>
   <v>       0.43108512       0.56962750       0.48351950 </v>
   <v>       0.68108512       0.56962750       0.48351950 </v>
   <v>       0.93108512       0.56962750       0.48351950 </v>
   <v>       0.18108512       0.06962750       0.98351950 </v>
   <v>       0.43108512       0.06962750       0.98351950 </v>
   <v>       0.68108512       0.06962750       0.98351950 </v>
   <v>       0.93108512       0.06962750       0.98351950 </v>
   <v>       0.18108512       0.56962750       0.98351950 </v>
   <v>       0.43108512       0.56962750       0.98351950 </v>
   <v>       0.68108512       0.56962750       0.98351950 </v>
   <v>       0.93108512       0.56962750       0.98351950 </v>
  </varray>
 </structure>
</modeling>
