 144 144   0   0
  0.1948916E+02  0.1401040E-08  0.1376691E-08  0.1455019E-08  0.5000000E-15
  1.000000000000000E-004
  CAR 
 unknown system                          
     13.06076437     -8.44123572  301      6.26449474      1.00000000
     -8.441  0.0000E+00  0.0000E+00
     -8.370  0.0000E+00  0.0000E+00
     -8.298  0.0000E+00  0.0000E+00
     -8.226  0.0000E+00  0.0000E+00
     -8.155  0.0000E+00  0.0000E+00
     -8.083  0.0000E+00  0.0000E+00
     -8.011  0.0000E+00  0.0000E+00
     -7.940  0.0000E+00  0.0000E+00
     -7.868  0.0000E+00  0.0000E+00
     -7.796  0.0000E+00  0.0000E+00
     -7.725  0.2937E-12  0.2105E-13
     -7.653  0.1581E-06  0.1133E-07
     -7.581  0.1586E-02  0.1137E-03
     -7.509  0.3517E+00  0.2532E-01
     -7.438  0.4313E+01  0.3345E+00
     -7.366  0.1911E+02  0.1704E+01
     -7.294  0.3786E+02  0.4418E+01
     -7.223  0.3949E+02  0.7248E+01
     -7.151  0.6436E+02  0.1186E+02
     -7.079  0.1004E+03  0.1906E+02
     -7.008  0.1265E+03  0.2813E+02
     -6.936  0.2083E+03  0.4306E+02
     -6.864  0.2226E+03  0.5901E+02
     -6.793  0.2575E+03  0.7747E+02
     -6.721  0.2070E+03  0.9231E+02
     -6.649  0.4934E+02  0.9584E+02
     -6.578  0.2209E+01  0.9600E+02
     -6.506  0.7912E-02  0.9600E+02
     -6.434  0.9898E-06  0.9600E+02
     -6.363  0.2901E-11  0.9600E+02
     -6.291  0.0000E+00  0.9600E+02
     -6.219  0.0000E+00  0.9600E+02
     -6.148  0.0000E+00  0.9600E+02
     -6.076  0.0000E+00  0.9600E+02
     -6.004  0.0000E+00  0.9600E+02
     -5.933  0.0000E+00  0.9600E+02
     -5.861  0.0000E+00  0.9600E+02
     -5.789  0.0000E+00  0.9600E+02
     -5.718  0.0000E+00  0.9600E+02
     -5.646  0.0000E+00  0.9600E+02
     -5.574  0.0000E+00  0.9600E+02
     -5.503  0.0000E+00  0.9600E+02
     -5.431  0.0000E+00  0.9600E+02
     -5.359  0.0000E+00  0.9600E+02
     -5.288  0.0000E+00  0.9600E+02
     -5.216  0.0000E+00  0.9600E+02
     -5.144  0.0000E+00  0.9600E+02
     -5.073  0.0000E+00  0.9600E+02
     -5.001  0.0000E+00  0.9600E+02
     -4.929  0.0000E+00  0.9600E+02
     -4.858  0.0000E+00  0.9600E+02
     -4.786  0.0000E+00  0.9600E+02
     -4.714  0.0000E+00  0.9600E+02
     -4.643  0.0000E+00  0.9600E+02
     -4.571  0.0000E+00  0.9600E+02
     -4.499  0.0000E+00  0.9600E+02
     -4.428  0.0000E+00  0.9600E+02
     -4.356  0.0000E+00  0.9600E+02
     -4.284  0.0000E+00  0.9600E+02
     -4.213  0.0000E+00  0.9600E+02
     -4.141  0.0000E+00  0.9600E+02
     -4.069  0.0000E+00  0.9600E+02
     -3.997  0.0000E+00  0.9600E+02
     -3.926  0.0000E+00  0.9600E+02
     -3.854  0.0000E+00  0.9600E+02
     -3.782  0.0000E+00  0.9600E+02
     -3.711  0.0000E+00  0.9600E+02
     -3.639  0.0000E+00  0.9600E+02
     -3.567  0.0000E+00  0.9600E+02
     -3.496  0.0000E+00  0.9600E+02
     -3.424  0.0000E+00  0.9600E+02
     -3.352  0.0000E+00  0.9600E+02
     -3.281  0.0000E+00  0.9600E+02
     -3.209  0.0000E+00  0.9600E+02
     -3.137  0.0000E+00  0.9600E+02
     -3.066  0.0000E+00  0.9600E+02
     -2.994  0.0000E+00  0.9600E+02
     -2.922  0.0000E+00  0.9600E+02
     -2.851  0.0000E+00  0.9600E+02
     -2.779  0.0000E+00  0.9600E+02
     -2.707  0.0000E+00  0.9600E+02
     -2.636  0.0000E+00  0.9600E+02
     -2.564  0.0000E+00  0.9600E+02
     -2.492  0.0000E+00  0.9600E+02
     -2.421  0.0000E+00  0.9600E+02
     -2.349  0.0000E+00  0.9600E+02
     -2.277  0.0000E+00  0.9600E+02
     -2.206  0.0000E+00  0.9600E+02
     -2.134  0.0000E+00  0.9600E+02
     -2.062  0.0000E+00  0.9600E+02
     -1.991  0.0000E+00  0.9600E+02
     -1.919  0.0000E+00  0.9600E+02
     -1.847  0.0000E+00  0.9600E+02
     -1.776  0.0000E+00  0.9600E+02
     -1.704  0.0000E+00  0.9600E+02
     -1.632  0.0000E+00  0.9600E+02
     -1.561  0.0000E+00  0.9600E+02
     -1.489  0.0000E+00  0.9600E+02
     -1.417  0.0000E+00  0.9600E+02
     -1.346  0.0000E+00  0.9600E+02
     -1.274  0.0000E+00  0.9600E+02
     -1.202  0.0000E+00  0.9600E+02
     -1.131  0.0000E+00  0.9600E+02
     -1.059  0.0000E+00  0.9600E+02
     -0.987  0.0000E+00  0.9600E+02
     -0.916  0.0000E+00  0.9600E+02
     -0.844  0.0000E+00  0.9600E+02
     -0.772  0.0000E+00  0.9600E+02
     -0.701  0.0000E+00  0.9600E+02
     -0.629  0.2130E-14  0.9600E+02
     -0.557  0.4137E-08  0.9600E+02
     -0.485  0.1404E-03  0.9600E+02
     -0.414  0.9651E-01  0.9601E+02
     -0.342  0.1803E+01  0.9614E+02
     -0.270  0.1856E+01  0.9627E+02
     -0.199  0.8565E+01  0.9688E+02
     -0.127  0.1537E+02  0.9798E+02
     -0.055  0.2457E+02  0.9975E+02
      0.016  0.5186E+02  0.1035E+03
      0.088  0.1041E+03  0.1109E+03
      0.160  0.1893E+03  0.1245E+03
      0.231  0.2070E+03  0.1393E+03
      0.303  0.2740E+03  0.1590E+03
      0.375  0.1916E+03  0.1727E+03
      0.446  0.1243E+03  0.1816E+03
      0.518  0.1410E+03  0.1917E+03
      0.590  0.1238E+03  0.2006E+03
      0.661  0.1685E+03  0.2127E+03
      0.733  0.2457E+03  0.2303E+03
      0.805  0.2292E+03  0.2467E+03
      0.876  0.2932E+03  0.2677E+03
      0.948  0.2826E+03  0.2880E+03
      1.020  0.1447E+03  0.2984E+03
      1.091  0.1858E+03  0.3117E+03
      1.163  0.2272E+03  0.3280E+03
      1.235  0.2305E+03  0.3445E+03
      1.306  0.2984E+03  0.3659E+03
      1.378  0.3085E+03  0.3880E+03
      1.450  0.3920E+03  0.4161E+03
      1.521  0.3547E+03  0.4415E+03
      1.593  0.3733E+03  0.4682E+03
      1.665  0.3652E+03  0.4944E+03
      1.736  0.3922E+03  0.5225E+03
      1.808  0.3715E+03  0.5492E+03
      1.880  0.3585E+03  0.5749E+03
      1.951  0.3899E+03  0.6028E+03
      2.023  0.4145E+03  0.6325E+03
      2.095  0.3772E+03  0.6595E+03
      2.166  0.3617E+03  0.6855E+03
      2.238  0.3754E+03  0.7124E+03
      2.310  0.3964E+03  0.7408E+03
      2.381  0.3369E+03  0.7649E+03
      2.453  0.2959E+03  0.7861E+03
      2.525  0.3402E+03  0.8105E+03
      2.596  0.3566E+03  0.8361E+03
      2.668  0.4091E+03  0.8654E+03
      2.740  0.3725E+03  0.8921E+03
      2.811  0.3817E+03  0.9195E+03
      2.883  0.4331E+03  0.9505E+03
      2.955  0.5014E+03  0.9864E+03
      3.026  0.4940E+03  0.1022E+04
      3.098  0.3639E+03  0.1048E+04
      3.170  0.2312E+03  0.1064E+04
      3.242  0.2047E+03  0.1079E+04
      3.313  0.1696E+03  0.1091E+04
      3.385  0.1364E+03  0.1101E+04
      3.457  0.1207E+03  0.1110E+04
      3.528  0.1587E+03  0.1121E+04
      3.600  0.1614E+03  0.1133E+04
      3.672  0.9973E+02  0.1140E+04
      3.743  0.9668E+02  0.1147E+04
      3.815  0.6373E+02  0.1151E+04
      3.887  0.7339E+02  0.1157E+04
      3.958  0.7243E+02  0.1162E+04
      4.030  0.6648E+02  0.1167E+04
      4.102  0.9196E+02  0.1173E+04
      4.173  0.1057E+03  0.1181E+04
      4.245  0.1123E+03  0.1189E+04
      4.317  0.7430E+02  0.1194E+04
      4.388  0.7313E+02  0.1199E+04
      4.460  0.6559E+02  0.1204E+04
      4.532  0.9305E+02  0.1211E+04
      4.603  0.9317E+02  0.1217E+04
      4.675  0.1031E+03  0.1225E+04
      4.747  0.1419E+03  0.1235E+04
      4.818  0.1355E+03  0.1245E+04
      4.890  0.7013E+02  0.1250E+04
      4.962  0.5387E+02  0.1254E+04
      5.033  0.5525E+02  0.1257E+04
      5.105  0.8968E+02  0.1264E+04
      5.177  0.1455E+03  0.1274E+04
      5.248  0.1054E+03  0.1282E+04
      5.320  0.6214E+02  0.1286E+04
      5.392  0.6077E+02  0.1291E+04
      5.463  0.6839E+02  0.1296E+04
      5.535  0.7319E+02  0.1301E+04
      5.607  0.7684E+02  0.1306E+04
      5.678  0.1134E+03  0.1314E+04
      5.750  0.1298E+03  0.1324E+04
      5.822  0.7131E+02  0.1329E+04
      5.893  0.6464E+02  0.1334E+04
      5.965  0.5720E+02  0.1338E+04
      6.037  0.2963E+02  0.1340E+04
      6.108  0.1868E+02  0.1341E+04
      6.180  0.2161E+02  0.1343E+04
      6.252  0.1659E+02  0.1344E+04
      6.323  0.8474E+01  0.1344E+04
      6.395  0.8030E+00  0.1344E+04
      6.467  0.1436E+00  0.1345E+04
      6.538  0.1989E+01  0.1345E+04
      6.610  0.1738E+01  0.1345E+04
      6.682  0.5904E+01  0.1345E+04
      6.754  0.2378E+02  0.1347E+04
      6.825  0.2545E+02  0.1349E+04
      6.897  0.1062E+02  0.1349E+04
      6.969  0.6351E+01  0.1350E+04
      7.040  0.8913E+01  0.1351E+04
      7.112  0.4815E+01  0.1351E+04
      7.184  0.2240E+02  0.1353E+04
      7.255  0.2409E+02  0.1354E+04
      7.327  0.2772E+02  0.1356E+04
      7.399  0.3220E+02  0.1359E+04
      7.470  0.3002E+02  0.1361E+04
      7.542  0.6360E+02  0.1365E+04
      7.614  0.6879E+02  0.1370E+04
      7.685  0.2640E+02  0.1372E+04
      7.757  0.5680E+02  0.1376E+04
      7.829  0.6976E+02  0.1381E+04
      7.900  0.7308E+02  0.1386E+04
      7.972  0.7617E+02  0.1392E+04
      8.044  0.6383E+02  0.1396E+04
      8.115  0.3363E+02  0.1399E+04
      8.187  0.1789E+02  0.1400E+04
      8.259  0.7890E+01  0.1401E+04
      8.330  0.1181E+02  0.1402E+04
      8.402  0.5203E+02  0.1405E+04
      8.474  0.3233E+02  0.1408E+04
      8.545  0.3456E+02  0.1410E+04
      8.617  0.9825E+02  0.1417E+04
      8.689  0.1018E+03  0.1424E+04
      8.760  0.5782E+02  0.1429E+04
      8.832  0.5025E+02  0.1432E+04
      8.904  0.3358E+02  0.1435E+04
      8.975  0.4590E+02  0.1438E+04
      9.047  0.2924E+02  0.1440E+04
      9.119  0.2178E+02  0.1441E+04
      9.190  0.9967E+01  0.1442E+04
      9.262  0.1821E+02  0.1444E+04
      9.334  0.5503E+02  0.1447E+04
      9.405  0.4909E+02  0.1451E+04
      9.477  0.5407E+02  0.1455E+04
      9.549  0.3777E+02  0.1458E+04
      9.620  0.5151E+02  0.1461E+04
      9.692  0.5026E+02  0.1465E+04
      9.764  0.4710E+02  0.1468E+04
      9.835  0.5419E+02  0.1472E+04
      9.907  0.7553E+02  0.1478E+04
      9.979  0.5727E+02  0.1482E+04
     10.050  0.1112E+03  0.1490E+04
     10.122  0.1159E+03  0.1498E+04
     10.194  0.3927E+02  0.1501E+04
     10.266  0.2987E+02  0.1503E+04
     10.337  0.4890E+02  0.1506E+04
     10.409  0.5889E+02  0.1511E+04
     10.481  0.9074E+02  0.1517E+04
     10.552  0.1119E+03  0.1525E+04
     10.624  0.1105E+03  0.1533E+04
     10.696  0.9246E+02  0.1540E+04
     10.767  0.7984E+02  0.1545E+04
     10.839  0.1081E+03  0.1553E+04
     10.911  0.8729E+02  0.1559E+04
     10.982  0.6401E+02  0.1564E+04
     11.054  0.3352E+02  0.1566E+04
     11.126  0.5769E+02  0.1571E+04
     11.197  0.4994E+02  0.1574E+04
     11.269  0.4667E+02  0.1577E+04
     11.341  0.8349E+02  0.1583E+04
     11.412  0.5157E+02  0.1587E+04
     11.484  0.5704E+02  0.1591E+04
     11.556  0.8893E+02  0.1598E+04
     11.627  0.6649E+02  0.1602E+04
     11.699  0.4401E+02  0.1606E+04
     11.771  0.1106E+02  0.1606E+04
     11.842  0.1533E+02  0.1607E+04
     11.914  0.3690E+02  0.1610E+04
     11.986  0.1956E+02  0.1611E+04
     12.057  0.2820E+01  0.1612E+04
     12.129  0.4475E+01  0.1612E+04
     12.201  0.5343E+00  0.1612E+04
     12.272  0.2093E-02  0.1612E+04
     12.344  0.1860E-06  0.1612E+04
     12.416  0.3218E-12  0.1612E+04
     12.487  0.0000E+00  0.1612E+04
     12.559  0.0000E+00  0.1612E+04
     12.631  0.0000E+00  0.1612E+04
     12.702  0.0000E+00  0.1612E+04
     12.774  0.0000E+00  0.1612E+04
     12.846  0.0000E+00  0.1612E+04
     12.917  0.0000E+00  0.1612E+04
     12.989  0.0000E+00  0.1612E+04
     13.061  0.0000E+00  0.1612E+04
