<?xml version="1.0" encoding="ISO-8859-1"?>
<modeling>
 <generator>
  <i name="program" type="string">vasp </i>
  <i name="version" type="string">5.4.4.18Apr17-6-g9f103f2a35  </i>
  <i name="subversion" type="string">(build Jul 30 2020 14:31:59) complex            parallel </i>
  <i name="platform" type="string">LinuxIFC </i>
  <i name="date" type="string">2021 02 04 </i>
  <i name="time" type="string">08:17:35 </i>
 </generator>
 <incar>
  <i type="string" name="PREC">accurate</i>
  <i type="string" name="ALGO"> normal</i>
  <i type="logical" name="ADDGRID"> T  </i>
  <i type="int" name="ISPIN">     1</i>
  <i type="int" name="NELM">   200</i>
  <i type="int" name="NELMIN">     8</i>
  <i name="EDIFF">      0.00000001</i>
  <i type="int" name="ISIF">     3</i>
  <i type="int" name="ISYM">     0</i>
  <i name="ENCUT">    650.00000000</i>
  <i type="logical" name="LREAL"> F  </i>
  <i type="int" name="ISMEAR">     0</i>
  <i name="SIGMA">      0.05000000</i>
  <i type="logical" name="LWAVE"> F  </i>
  <i type="logical" name="LASPH"> T  </i>
  <v type="int" name="KPOINT_BSE">    -1     0     0     0</v>
  <i type="int" name="NELM">   200</i>
  <i type="string" name="GGA"> ps</i>
  <i type="logical" name="LASPH"> T  </i>
 </incar>
 <structure name="primitive_cell" >
  <crystal>
   <varray name="basis" >
    <v>      14.01039598       0.00139138       0.00000000 </v>
    <v>      -0.00150196      13.76691092       0.00000000 </v>
    <v>       0.00000000       0.00000000      14.55019386 </v>
   </varray>
   <i name="volume">   2806.43958022 </i>
   <varray name="rec_basis" >
    <v>       0.07137557       0.00000779       0.00000000 </v>
    <v>      -0.00000721       0.07263794       0.00000000 </v>
    <v>       0.00000000       0.00000000       0.06872761 </v>
   </varray>
  </crystal>
  <varray name="positions" >
   <v>       0.42987898       0.17167077       0.33247735 </v>
   <v>      -0.50000000       0.00000000       0.38812698 </v>
   <v>       0.25000000       0.25000000       0.33409665 </v>
   <v>      -0.50000000       0.25000000       0.16743769 </v>
   <v>      -0.42987656       0.07832506       0.22308000 </v>
   <v>      -0.50000000       0.25000000      -0.49922898 </v>
   <v>       0.32012224       0.17167631       0.49914189 </v>
   <v>       0.32012224       0.17167631       0.16580856 </v>
   <v>      -0.42987898       0.32832923       0.33247735 </v>
   <v>       0.42987656      -0.07832506       0.22308000 </v>
   <v>       0.42987656       0.42167494       0.22308000 </v>
   <v>       0.25000000       0.00000000       0.22145206 </v>
   <v>       0.17987948       0.07832633       0.38974408 </v>
   <v>      -0.32012052       0.07832633       0.38974408 </v>
   <v>       0.32012052      -0.07832633       0.38974408 </v>
   <v>       0.32012052       0.42167367       0.38974408 </v>
   <v>      -0.42987656       0.07832506      -0.44358667 </v>
   <v>      -0.25000000       0.25000000       0.33409665 </v>
   <v>      -0.50000000      -0.50000000       0.38812698 </v>
   <v>       0.25000000       0.00000000      -0.44521461 </v>
   <v>       0.42987656      -0.07832506      -0.44358667 </v>
   <v>       0.42987656       0.42167494      -0.44358667 </v>
   <v>      -0.32012224       0.32832369       0.49914189 </v>
   <v>      -0.32012224       0.32832369       0.16580856 </v>
   <v>       0.17987776       0.32832369       0.49914189 </v>
   <v>       0.17987776       0.32832369       0.16512128 </v>
   <v>      -0.50000000       0.00000000       0.05479365 </v>
   <v>       0.42987898       0.17167077      -0.33418932 </v>
   <v>       0.42987898       0.17167077      -0.00085599 </v>
   <v>      -0.42987898      -0.17167077       0.33247735 </v>
   <v>      -0.25000000       0.00000000       0.22145206 </v>
   <v>       0.25000000      -0.50000000       0.22145206 </v>
   <v>       0.07012344       0.07832506       0.22308000 </v>
   <v>       0.17987948       0.07832633       0.05641075 </v>
   <v>      -0.32012052       0.07832633       0.05641075 </v>
   <v>       0.07012102       0.32832923       0.33247735 </v>
   <v>       0.32012052      -0.07832633       0.05641075 </v>
   <v>       0.32012052       0.42167367       0.05641075 </v>
   <v>       0.25000000       0.25000000       0.00076332 </v>
   <v>       0.25000000       0.25000000      -0.33257001 </v>
   <v>      -0.42987898       0.32832923      -0.33418932 </v>
   <v>      -0.42987898       0.32832923      -0.00085599 </v>
   <v>      -0.17987776       0.17167631       0.49914189 </v>
   <v>      -0.17987776       0.17167631       0.16580856 </v>
   <v>      -0.25000000       0.00000000      -0.44521461 </v>
   <v>       0.25000000      -0.50000000      -0.44521461 </v>
   <v>       0.07012344       0.07832506      -0.44358667 </v>
   <v>      -0.50000000      -0.50000000       0.05479365 </v>
   <v>      -0.42987656      -0.42167494       0.22308000 </v>
   <v>      -0.50000000       0.00000000      -0.27853968 </v>
   <v>       0.25000000      -0.25000000       0.33409665 </v>
   <v>      -0.50000000      -0.25000000       0.16743769 </v>
   <v>       0.17987776      -0.17167631       0.49914189 </v>
   <v>       0.17987776      -0.17167631       0.16580856 </v>
   <v>      -0.32012224      -0.17167631       0.49914189 </v>
   <v>      -0.32012224      -0.17167631       0.16580856 </v>
   <v>      -0.50000000      -0.25000000      -0.49922898 </v>
   <v>      -0.17987948       0.42167367       0.38974408 </v>
   <v>      -0.17987948      -0.07832633       0.38974408 </v>
   <v>       0.00000000       0.00000000       0.38812698 </v>
   <v>      -0.25000000      -0.50000000       0.22145206 </v>
   <v>       0.00000000       0.25000000       0.16743769 </v>
   <v>       0.00000000       0.25000000      -0.49922898 </v>
   <v>      -0.32012052      -0.42167367       0.38974408 </v>
   <v>       0.17987948      -0.42167367       0.38974408 </v>
   <v>      -0.25000000       0.25000000       0.00076332 </v>
   <v>      -0.25000000       0.25000000      -0.33257001 </v>
   <v>      -0.42987656      -0.42167494      -0.44358667 </v>
   <v>       0.17987948       0.07832633      -0.27692259 </v>
   <v>      -0.32012052       0.07832633      -0.27692259 </v>
   <v>       0.32012052      -0.07832633      -0.27692259 </v>
   <v>       0.32012052       0.42167367      -0.27692259 </v>
   <v>      -0.42987656       0.07832506      -0.11025334 </v>
   <v>       0.42987898      -0.32832923       0.33247735 </v>
   <v>       0.07012102      -0.17167077       0.33247735 </v>
   <v>      -0.07012102       0.17167077       0.33247735 </v>
   <v>      -0.42987898      -0.17167077      -0.33418932 </v>
   <v>      -0.42987898      -0.17167077      -0.00085599 </v>
   <v>      -0.25000000      -0.50000000      -0.44521461 </v>
   <v>       0.42987656      -0.07832506      -0.11025334 </v>
   <v>       0.42987656       0.42167494      -0.11025334 </v>
   <v>      -0.50000000      -0.50000000      -0.27853968 </v>
   <v>       0.07012102       0.32832923      -0.33418932 </v>
   <v>       0.07012102       0.32832923      -0.00085599 </v>
   <v>       0.25000000       0.00000000      -0.11188127 </v>
   <v>      -0.25000000      -0.25000000       0.33409665 </v>
   <v>      -0.50000000       0.25000000      -0.16589565 </v>
   <v>       0.32012224       0.17167631      -0.16752478 </v>
   <v>       0.32012224      -0.32832369       0.49914189 </v>
   <v>       0.32012224      -0.32832369       0.16580856 </v>
   <v>       0.00000000      -0.50000000       0.38812698 </v>
   <v>      -0.17987948       0.42167367       0.05641075 </v>
   <v>      -0.17987948      -0.07832633       0.05641075 </v>
   <v>       0.00000000       0.00000000       0.05479365 </v>
   <v>       0.07012344      -0.42167494       0.22308000 </v>
   <v>      -0.32012052      -0.42167367       0.05641075 </v>
   <v>       0.17987948      -0.42167367       0.05641075 </v>
   <v>       0.25000000      -0.25000000       0.00076332 </v>
   <v>      -0.07012344       0.42167494       0.22308000 </v>
   <v>      -0.07012344      -0.07832506       0.22308000 </v>
   <v>       0.25000000      -0.25000000      -0.33257001 </v>
   <v>       0.07012344      -0.42167494      -0.44358667 </v>
   <v>      -0.25000000       0.00000000      -0.11188127 </v>
   <v>       0.07012344       0.07832506      -0.11025334 </v>
   <v>       0.25000000      -0.50000000      -0.11188127 </v>
   <v>      -0.32012224       0.32832369      -0.16752478 </v>
   <v>       0.17987776       0.32832369      -0.16752478 </v>
   <v>       0.42987898      -0.32832923      -0.33418932 </v>
   <v>       0.42987898      -0.32832923      -0.00085599 </v>
   <v>       0.07012102      -0.17167077      -0.33418932 </v>
   <v>       0.07012102      -0.17167077      -0.00085599 </v>
   <v>      -0.07012344       0.42167494      -0.44358667 </v>
   <v>      -0.07012344      -0.07832506      -0.44358667 </v>
   <v>      -0.07012102       0.17167077      -0.33418932 </v>
   <v>      -0.07012102       0.17167077      -0.00085599 </v>
   <v>       0.00000000      -0.50000000       0.05479365 </v>
   <v>       0.00000000       0.00000000      -0.27853968 </v>
   <v>      -0.17987948       0.42167367      -0.27692259 </v>
   <v>      -0.17987948      -0.07832633      -0.27692259 </v>
   <v>       0.00000000      -0.25000000       0.16743769 </v>
   <v>      -0.32012052      -0.42167367      -0.27692259 </v>
   <v>       0.17987948      -0.42167367      -0.27692259 </v>
   <v>       0.00000000      -0.25000000      -0.49922898 </v>
   <v>      -0.42987656      -0.42167494      -0.11025334 </v>
   <v>      -0.25000000      -0.25000000       0.00076332 </v>
   <v>      -0.25000000      -0.25000000      -0.33257001 </v>
   <v>      -0.25000000      -0.50000000      -0.11188127 </v>
   <v>      -0.17987776       0.17167631      -0.16752478 </v>
   <v>      -0.17987776      -0.32832369       0.49914189 </v>
   <v>      -0.17987776      -0.32832369       0.16580856 </v>
   <v>      -0.50000000      -0.25000000      -0.16589565 </v>
   <v>       0.17987776      -0.17167631      -0.16752478 </v>
   <v>      -0.32012224      -0.17167631      -0.16752478 </v>
   <v>       0.00000000      -0.50000000      -0.27853968 </v>
   <v>       0.00000000       0.25000000      -0.16589565 </v>
   <v>      -0.07012102      -0.32832923       0.33247735 </v>
   <v>       0.07012344      -0.42167494      -0.11025334 </v>
   <v>      -0.07012344       0.42167494      -0.11025334 </v>
   <v>      -0.07012344      -0.07832506      -0.11025334 </v>
   <v>       0.32012224      -0.32832369      -0.16752478 </v>
   <v>      -0.07012102      -0.32832923      -0.33418932 </v>
   <v>      -0.07012102      -0.32832923      -0.00085599 </v>
   <v>       0.00000000      -0.25000000      -0.16589565 </v>
   <v>      -0.17987776      -0.32832369      -0.16752478 </v>
  </varray>
 </structure>
 <varray name="primitive_index" >
  <v type="int" >        1 </v>
  <v type="int" >      102 </v>
  <v type="int" >      137 </v>
  <v type="int" >      122 </v>
  <v type="int" >       86 </v>
  <v type="int" >      126 </v>
  <v type="int" >       65 </v>
  <v type="int" >       61 </v>
  <v type="int" >       14 </v>
  <v type="int" >       75 </v>
  <v type="int" >       73 </v>
  <v type="int" >      109 </v>
  <v type="int" >       41 </v>
  <v type="int" >       42 </v>
  <v type="int" >       31 </v>
  <v type="int" >       29 </v>
  <v type="int" >       90 </v>
  <v type="int" >      138 </v>
  <v type="int" >      104 </v>
  <v type="int" >      113 </v>
  <v type="int" >       79 </v>
  <v type="int" >       77 </v>
  <v type="int" >       54 </v>
  <v type="int" >       50 </v>
  <v type="int" >       53 </v>
  <v type="int" >       49 </v>
  <v type="int" >       98 </v>
  <v type="int" >        5 </v>
  <v type="int" >        9 </v>
  <v type="int" >       16 </v>
  <v type="int" >      110 </v>
  <v type="int" >      111 </v>
  <v type="int" >       85 </v>
  <v type="int" >       37 </v>
  <v type="int" >       38 </v>
  <v type="int" >       13 </v>
  <v type="int" >       27 </v>
  <v type="int" >       25 </v>
  <v type="int" >      133 </v>
  <v type="int" >      141 </v>
  <v type="int" >       18 </v>
  <v type="int" >       22 </v>
  <v type="int" >       66 </v>
  <v type="int" >       62 </v>
  <v type="int" >      114 </v>
  <v type="int" >      115 </v>
  <v type="int" >       89 </v>
  <v type="int" >      100 </v>
  <v type="int" >       88 </v>
  <v type="int" >      106 </v>
  <v type="int" >      139 </v>
  <v type="int" >      124 </v>
  <v type="int" >       55 </v>
  <v type="int" >       51 </v>
  <v type="int" >       56 </v>
  <v type="int" >       52 </v>
  <v type="int" >      128 </v>
  <v type="int" >       30 </v>
  <v type="int" >       32 </v>
  <v type="int" >      101 </v>
  <v type="int" >      112 </v>
  <v type="int" >      121 </v>
  <v type="int" >      125 </v>
  <v type="int" >       44 </v>
  <v type="int" >       43 </v>
  <v type="int" >      134 </v>
  <v type="int" >      142 </v>
  <v type="int" >       92 </v>
  <v type="int" >       45 </v>
  <v type="int" >       46 </v>
  <v type="int" >       35 </v>
  <v type="int" >       33 </v>
  <v type="int" >       94 </v>
  <v type="int" >        3 </v>
  <v type="int" >       15 </v>
  <v type="int" >        2 </v>
  <v type="int" >       20 </v>
  <v type="int" >       24 </v>
  <v type="int" >      116 </v>
  <v type="int" >       83 </v>
  <v type="int" >       81 </v>
  <v type="int" >      108 </v>
  <v type="int" >       17 </v>
  <v type="int" >       21 </v>
  <v type="int" >      117 </v>
  <v type="int" >      140 </v>
  <v type="int" >      130 </v>
  <v type="int" >       69 </v>
  <v type="int" >       67 </v>
  <v type="int" >       63 </v>
  <v type="int" >      103 </v>
  <v type="int" >       26 </v>
  <v type="int" >       28 </v>
  <v type="int" >       97 </v>
  <v type="int" >       87 </v>
  <v type="int" >       40 </v>
  <v type="int" >       39 </v>
  <v type="int" >      135 </v>
  <v type="int" >       74 </v>
  <v type="int" >       76 </v>
  <v type="int" >      143 </v>
  <v type="int" >       91 </v>
  <v type="int" >      118 </v>
  <v type="int" >       93 </v>
  <v type="int" >      119 </v>
  <v type="int" >       58 </v>
  <v type="int" >       57 </v>
  <v type="int" >        7 </v>
  <v type="int" >       11 </v>
  <v type="int" >       19 </v>
  <v type="int" >       23 </v>
  <v type="int" >       78 </v>
  <v type="int" >       80 </v>
  <v type="int" >        6 </v>
  <v type="int" >       10 </v>
  <v type="int" >       99 </v>
  <v type="int" >      105 </v>
  <v type="int" >       34 </v>
  <v type="int" >       36 </v>
  <v type="int" >      123 </v>
  <v type="int" >       48 </v>
  <v type="int" >       47 </v>
  <v type="int" >      127 </v>
  <v type="int" >       96 </v>
  <v type="int" >      136 </v>
  <v type="int" >      144 </v>
  <v type="int" >      120 </v>
  <v type="int" >       70 </v>
  <v type="int" >       68 </v>
  <v type="int" >       64 </v>
  <v type="int" >      132 </v>
  <v type="int" >       59 </v>
  <v type="int" >       60 </v>
  <v type="int" >      107 </v>
  <v type="int" >      129 </v>
  <v type="int" >        4 </v>
  <v type="int" >       95 </v>
  <v type="int" >       82 </v>
  <v type="int" >       84 </v>
  <v type="int" >       71 </v>
  <v type="int" >        8 </v>
  <v type="int" >       12 </v>
  <v type="int" >      131 </v>
  <v type="int" >       72 </v>
 </varray>
 <kpoints>
  <generation param="Gamma">
   <v type="int" name="divisions">       2        2        2 </v>
   <v name="usershift">      0.00000000       0.00000000       0.00000000 </v>
   <v name="genvec1">      0.50000000       0.00000000       0.00000000 </v>
   <v name="genvec2">      0.00000000       0.50000000       0.00000000 </v>
   <v name="genvec3">      0.00000000       0.00000000       0.50000000 </v>
   <v name="shift">      0.00000000       0.00000000       0.00000000 </v>
  </generation>
  <varray name="kpointlist" >
   <v>       0.00000000       0.00000000       0.00000000 </v>
   <v>       0.50000000      -0.00000000       0.00000000 </v>
   <v>       0.00000000       0.50000000       0.00000000 </v>
   <v>       0.50000000       0.50000000       0.00000000 </v>
   <v>       0.00000000       0.00000000       0.50000000 </v>
   <v>       0.50000000      -0.00000000       0.50000000 </v>
   <v>       0.00000000       0.50000000       0.50000000 </v>
   <v>       0.50000000       0.50000000       0.50000000 </v>
  </varray>
  <varray name="weights" >
   <v>       0.12500000 </v>
   <v>       0.12500000 </v>
   <v>       0.12500000 </v>
   <v>       0.12500000 </v>
   <v>       0.12500000 </v>
   <v>       0.12500000 </v>
   <v>       0.12500000 </v>
   <v>       0.12500000 </v>
  </varray>
 </kpoints>
 <parameters>
  <separator name="general" >
   <i type="string" name="SYSTEM">unknown system</i>
   <i type="logical" name="LCOMPAT"> F  </i>
  </separator>
  <separator name="electronic" >
   <i type="string" name="PREC">accura</i>
   <i name="ENMAX">    650.00000000</i>
   <i name="ENAUG">    446.84200000</i>
   <i name="EDIFF">      0.00000001</i>
   <i type="int" name="IALGO">    38</i>
   <i type="int" name="IWAVPR">    10</i>
   <i type="int" name="NBANDS">   806</i>
   <i name="NELECT">   1344.00000000</i>
   <i type="int" name="TURBO">     0</i>
   <i type="int" name="IRESTART">     0</i>
   <i type="int" name="NREBOOT">     0</i>
   <i type="int" name="NMIN">     0</i>
   <i name="EREF">      0.00000000</i>
   <separator name="electronic smearing" >
    <i type="int" name="ISMEAR">     0</i>
    <i name="SIGMA">      0.05000000</i>
    <i name="KSPACING">      0.50000000</i>
    <i type="logical" name="KGAMMA"> T  </i>
   </separator>
   <separator name="electronic projectors" >
    <i type="logical" name="LREAL"> F  </i>
    <v name="ROPT">      0.00000000      0.00000000</v>
    <i type="int" name="LMAXPAW">  -100</i>
    <i type="int" name="LMAXMIX">     2</i>
    <i type="logical" name="NLSPLINE"> F  </i>
   </separator>
   <separator name="electronic startup" >
    <i type="int" name="ISTART">     0</i>
    <i type="int" name="ICHARG">     2</i>
    <i type="int" name="INIWAV">     1</i>
   </separator>
   <separator name="electronic spin" >
    <i type="int" name="ISPIN">     1</i>
    <i type="logical" name="LNONCOLLINEAR"> F  </i>
    <v name="MAGMOM">      1.00000000      1.00000000      1.00000000      1.00000000      1.00000000      1.00000000      1.00000000      1.00000000      1.00000000      1.00000000      1.00000000      1.00000000      1.00000000      1.00000000      1.00000000      1.00000000      1.00000000      1.00000000      1.00000000      1.00000000
      1.00000000      1.00000000      1.00000000      1.00000000      1.00000000      1.00000000      1.00000000      1.00000000      1.00000000      1.00000000      1.00000000      1.00000000      1.00000000      1.00000000      1.00000000      1.00000000      1.00000000      1.00000000      1.00000000      1.00000000
      1.00000000      1.00000000      1.00000000      1.00000000      1.00000000      1.00000000      1.00000000      1.00000000      1.00000000      1.00000000      1.00000000      1.00000000      1.00000000      1.00000000      1.00000000      1.00000000      1.00000000      1.00000000      1.00000000      1.00000000
      1.00000000      1.00000000      1.00000000      1.00000000      1.00000000      1.00000000      1.00000000      1.00000000      1.00000000      1.00000000      1.00000000      1.00000000      1.00000000      1.00000000      1.00000000      1.00000000      1.00000000      1.00000000      1.00000000      1.00000000
      1.00000000      1.00000000      1.00000000      1.00000000      1.00000000      1.00000000      1.00000000      1.00000000      1.00000000      1.00000000      1.00000000      1.00000000      1.00000000      1.00000000      1.00000000      1.00000000      1.00000000      1.00000000      1.00000000      1.00000000
      1.00000000      1.00000000      1.00000000      1.00000000      1.00000000      1.00000000      1.00000000      1.00000000      1.00000000      1.00000000      1.00000000      1.00000000      1.00000000      1.00000000      1.00000000      1.00000000      1.00000000      1.00000000      1.00000000      1.00000000
      1.00000000      1.00000000      1.00000000      1.00000000      1.00000000      1.00000000      1.00000000      1.00000000      1.00000000      1.00000000      1.00000000      1.00000000      1.00000000      1.00000000      1.00000000      1.00000000      1.00000000      1.00000000      1.00000000      1.00000000
      1.00000000      1.00000000      1.00000000      1.00000000</v>
    <i name="NUPDOWN">     -1.00000000</i>
    <i type="logical" name="LSORBIT"> F  </i>
    <v name="SAXIS">      0.00000000      0.00000000      1.00000000</v>
    <i type="logical" name="LSPIRAL"> F  </i>
    <v name="QSPIRAL">      0.00000000      0.00000000      0.00000000</v>
    <i type="logical" name="LZEROZ"> F  </i>
   </separator>
   <separator name="electronic exchange-correlation" >
    <i type="logical" name="LASPH"> T  </i>
    <i type="logical" name="LMETAGGA"> F  </i>
   </separator>
   <separator name="electronic convergence" >
    <i type="int" name="NELM">   200</i>
    <i type="int" name="NELMDL">    -5</i>
    <i type="int" name="NELMIN">     8</i>
    <i name="ENINI">    650.00000000</i>
    <separator name="electronic convergence detail" >
     <i type="logical" name="LDIAG"> T  </i>
     <i type="logical" name="LSUBROT"> F  </i>
     <i name="WEIMIN">      0.00000000</i>
     <i name="EBREAK">      0.00000000</i>
     <i name="DEPER">      0.30000000</i>
     <i type="int" name="NRMM">     4</i>
     <i name="TIME">      0.40000000</i>
    </separator>
   </separator>
   <separator name="electronic mixer" >
    <i name="AMIX">      0.40000000</i>
    <i name="BMIX">      1.00000000</i>
    <i name="AMIN">      0.10000000</i>
    <i name="AMIX_MAG">      1.60000000</i>
    <i name="BMIX_MAG">      1.00000000</i>
    <separator name="electronic mixer details" >
     <i type="int" name="IMIX">     4</i>
     <i type="logical" name="MIXFIRST"> F  </i>
     <i type="int" name="MAXMIX">   -45</i>
     <i name="WC">    100.00000000</i>
     <i type="int" name="INIMIX">     1</i>
     <i type="int" name="MIXPRE">     1</i>
     <i type="int" name="MREMOVE">     5</i>
    </separator>
   </separator>
   <separator name="electronic dipolcorrection" >
    <i type="logical" name="LDIPOL"> F  </i>
    <i type="logical" name="LMONO"> F  </i>
    <i type="int" name="IDIPOL">     0</i>
    <i name="EPSILON">      1.00000000</i>
    <v name="DIPOL">   -100.00000000   -100.00000000   -100.00000000</v>
    <i name="EFIELD">      0.00000000</i>
   </separator>
  </separator>
  <separator name="grids" >
   <i type="int" name="NGX">   120</i>
   <i type="int" name="NGY">   120</i>
   <i type="int" name="NGZ">   126</i>
   <i type="int" name="NGXF">   240</i>
   <i type="int" name="NGYF">   240</i>
   <i type="int" name="NGZF">   252</i>
   <i type="logical" name="ADDGRID"> T  </i>
  </separator>
  <separator name="ionic" >
   <i type="int" name="NSW">     0</i>
   <i type="int" name="IBRION">    -1</i>
   <i type="int" name="MDALGO">     0</i>
   <i type="int" name="ISIF">     3</i>
   <i name="PSTRESS">      0.00000000</i>
   <i name="EDIFFG">      0.00000010</i>
   <i type="int" name="NFREE">     0</i>
   <i name="POTIM">      0.50000000</i>
   <i name="SMASS">     -3.00000000</i>
   <i name="SCALEE">      1.00000000</i>
  </separator>
  <separator name="ionic md" >
   <i name="TEBEG">      0.00010000</i>
   <i name="TEEND">      0.00010000</i>
   <i type="int" name="NBLOCK">     1</i>
   <i type="int" name="KBLOCK">     1</i>
   <i type="int" name="NPACO">   256</i>
   <i name="APACO">     16.00000000</i>
  </separator>
  <separator name="symmetry" >
   <i type="int" name="ISYM">     0</i>
   <i name="SYMPREC">      0.00001000</i>
  </separator>
  <separator name="dos" >
   <i type="int" name="LORBIT">     0</i>
   <v name="RWIGS">     -1.00000000     -1.00000000</v>
   <i type="int" name="NEDOS">   301</i>
   <i name="EMIN">     10.00000000</i>
   <i name="EMAX">    -10.00000000</i>
   <i name="EFERMI">      0.00000000</i>
  </separator>
  <separator name="writing" >
   <i type="int" name="NWRITE">     2</i>
   <i type="logical" name="LWAVE"> F  </i>
   <i type="logical" name="LDOWNSAMPLE"> F  </i>
   <i type="logical" name="LCHARG"> T  </i>
   <i type="logical" name="LPARD"> F  </i>
   <i type="logical" name="LVTOT"> F  </i>
   <i type="logical" name="LVHAR"> F  </i>
   <i type="logical" name="LELF"> F  </i>
   <i type="logical" name="LOPTICS"> F  </i>
   <v name="STM">      0.00000000      0.00000000      0.00000000      0.00000000      0.00000000      0.00000000      0.00000000</v>
  </separator>
  <separator name="performance" >
   <i type="int" name="NPAR">     1</i>
   <i type="int" name="NSIM">     4</i>
   <i type="int" name="NBLK">    -1</i>
   <i type="logical" name="LPLANE"> T  </i>
   <i type="logical" name="LSCALAPACK"> T  </i>
   <i type="logical" name="LSCAAWARE"> F  </i>
   <i type="logical" name="LSCALU"> F  </i>
   <i type="logical" name="LASYNC"> F  </i>
   <i type="logical" name="LORBITALREAL"> F  </i>
  </separator>
  <separator name="miscellaneous" >
   <i type="int" name="IDIOT">     3</i>
   <i type="int" name="ISPECIAL">     0</i>
   <i type="logical" name="LMUSIC"> F  </i>
   <v name="POMASS">    107.86800000     78.96000000</v>
   <v name="DARWINR">      0.00000000      0.00000000</v>
   <v name="DARWINV">      1.00000000      1.00000000</v>
   <i type="logical" name="LCORR"> T  </i>
  </separator>
  <i type="logical" name="GGA_COMPAT"> T  </i>
  <i type="logical" name="LBERRY"> F  </i>
  <i type="int" name="ICORELEVEL">     0</i>
  <i type="logical" name="LDAU"> F  </i>
  <i type="int" name="I_CONSTRAINED_M">     0</i>
  <separator name="electronic exchange-correlation" >
   <i type="string" name="GGA">PS</i>
   <i type="int" name="VOSKOWN">     0</i>
   <i type="logical" name="LHFCALC"> F  </i>
   <i type="string" name="PRECFOCK"></i>
   <i type="logical" name="LSYMGRAD"> F  </i>
   <i type="logical" name="LHFONE"> F  </i>
   <i type="logical" name="LRHFCALC"> F  </i>
   <i type="logical" name="LTHOMAS"> F  </i>
   <i type="logical" name="LMODELHF"> F  </i>
   <i name="ENCUT4O">     -1.00000000</i>
   <i type="int" name="EXXOEP">     0</i>
   <i type="int" name="FOURORBIT">     0</i>
   <i name="AEXX">      0.00000000</i>
   <i name="HFALPHA">      0.00000000</i>
   <i name="MCALPHA">      0.00000000</i>
   <i name="ALDAX">      1.00000000</i>
   <i name="AGGAX">      1.00000000</i>
   <i name="ALDAC">      1.00000000</i>
   <i name="AGGAC">      1.00000000</i>
   <i type="int" name="NKREDX">     1</i>
   <i type="int" name="NKREDY">     1</i>
   <i type="int" name="NKREDZ">     1</i>
   <i type="logical" name="SHIFTRED"> F  </i>
   <i type="logical" name="ODDONLY"> F  </i>
   <i type="logical" name="EVENONLY"> F  </i>
   <i type="int" name="LMAXFOCK">     0</i>
   <i type="int" name="NMAXFOCKAE">     0</i>
   <i type="logical" name="LFOCKAEDFT"> F  </i>
   <i name="HFSCREEN">      0.00000000</i>
   <i name="HFSCREENC">      0.00000000</i>
   <i type="int" name="NBANDSGWLOW">     0</i>
  </separator>
  <separator name="vdW DFT" >
   <i type="logical" name="LUSE_VDW"> F  </i>
   <i name="Zab_VDW">     -0.84910000</i>
   <i name="PARAM1">      0.12340000</i>
   <i name="PARAM2">      1.00000000</i>
   <i name="PARAM3">      0.00000000</i>
  </separator>
  <separator name="model GW" >
   <i type="int" name="MODEL_GW">     0</i>
   <i name="MODEL_EPS0">     11.69349825</i>
   <i name="MODEL_ALPHA">      1.00000000</i>
  </separator>
  <separator name="linear response parameters" >
   <i type="logical" name="LEPSILON"> F  </i>
   <i type="logical" name="LRPA"> F  </i>
   <i type="logical" name="LNABLA"> F  </i>
   <i type="logical" name="LVEL"> F  </i>
   <i type="int" name="KINTER">     0</i>
   <i name="CSHIFT">      0.10000000</i>
   <i name="OMEGAMAX">     -1.00000000</i>
   <i name="DEG_THRESHOLD">      0.00200000</i>
   <i name="RTIME">     -0.10000000</i>
   <i name="WPLASMAI">      0.00000000</i>
   <v name="DFIELD">      0.00000000      0.00000000      0.00000000</v>
   <v name="WPLASMA">      0.00000000      0.00000000      0.00000000      0.00000000      0.00000000      0.00000000      0.00000000      0.00000000      0.00000000</v>
  </separator>
  <separator name="orbital magnetization" >
   <i type="logical" name="NUCIND"> F  </i>
   <v name="MAGPOS">      0.00000000      0.00000000      0.00000000</v>
   <i type="logical" name="LNICSALL"> T  </i>
   <i type="logical" name="ORBITALMAG"> F  </i>
   <i type="logical" name="LMAGBLOCH"> F  </i>
   <i type="logical" name="LCHIMAG"> F  </i>
   <i type="logical" name="LGAUGE"> T  </i>
   <i type="int" name="MAGATOM">     0</i>
   <v name="MAGDIPOL">      0.00000000      0.00000000      0.00000000</v>
   <v name="AVECCONST">      0.00000000      0.00000000      0.00000000</v>
  </separator>
  <separator name="response functions" >
   <i type="logical" name="LADDER"> F  </i>
   <i type="logical" name="LRPAFORCE"> F  </i>
   <i type="logical" name="LFXC"> F  </i>
   <i type="logical" name="LHARTREE"> T  </i>
   <i type="int" name="IBSE">     0</i>
   <v type="int" name="KPOINT">    -1     0     0     0</v>
   <i type="logical" name="LTCTE"> F  </i>
   <i type="logical" name="LTETE"> F  </i>
   <i type="logical" name="LTRIPLET"> F  </i>
   <i type="logical" name="LFXCEPS"> F  </i>
   <i type="logical" name="LFXHEG"> F  </i>
   <i type="int" name="NATURALO">     2</i>
   <i type="logical" name="L2ORDER"> F  </i>
   <i type="logical" name="LMP2LT"> F  </i>
   <i type="logical" name="LUSEW"> F  </i>
   <i name="ENCUTGW">     -2.00000000</i>
   <i name="ENCUTGWSOFT">     -2.00000000</i>
   <i name="ENCUTLF">     -1.00000000</i>
   <i type="int" name="LMAXMP2">    -1</i>
   <i name="SCISSOR">      0.00000000</i>
   <i type="int" name="NOMEGA">     0</i>
   <i type="int" name="NOMEGAR">     0</i>
   <i type="int" name="NBANDSGW">    -1</i>
   <i type="int" name="NBANDSO">    -1</i>
   <i type="int" name="NBANDSV">    -1</i>
   <i type="int" name="NELM">   200</i>
   <i type="int" name="NELMHF">     1</i>
   <i type="int" name="DIM">     3</i>
   <i type="int" name="ANTIRES">     0</i>
   <i name="OMEGAMAX">    -30.00000000</i>
   <i name="OMEGAMIN">    -30.00000000</i>
   <i name="OMEGATL">   -200.00000000</i>
   <i type="int" name="OMEGAGRID">   140</i>
   <i name="CSHIFT">     -0.10000000</i>
   <i type="logical" name="SELFENERGY"> F  </i>
   <i type="logical" name="LSPECTRAL"> F  </i>
   <i type="logical" name="LSPECTRALGW"> F  </i>
   <i type="logical" name="LSINGLES"> F  </i>
   <i type="logical" name="LFERMIGW"> F  </i>
   <i type="logical" name="ODDONLYGW"> F  </i>
   <i type="logical" name="EVENONLYGW"> F  </i>
   <i type="int" name="NKREDLFX">     1</i>
   <i type="int" name="NKREDLFY">     1</i>
   <i type="int" name="NKREDLFZ">     1</i>
   <i type="int" name="MAXMEM">  2800</i>
   <i type="int" name="TELESCOPE">     0</i>
   <i type="int" name="TAUPAR">     1</i>
   <i type="int" name="OMEGAPAR">    -1</i>
   <i name="LAMBDA">      1.00000000</i>
  </separator>
  <separator name="External order field" >
   <i name="OFIELD_KAPPA">      0.00000000</i>
   <v name="OFIELD_K">      0.00000000      0.00000000      0.00000000</v>
   <i name="OFIELD_Q6_NEAR">      0.00000000</i>
   <i name="OFIELD_Q6_FAR">      0.00000000</i>
   <i name="OFIELD_A">      0.00000000</i>
  </separator>
 </parameters>
 <atominfo>
  <atoms>     144 </atoms>
  <types>       2 </types>
  <array name="atoms" >
   <dimension dim="1">ion</dimension>
   <field type="string">element</field>
   <field type="int">atomtype</field>
   <set>
    <rc><c>Ag</c><c>   1</c></rc>
    <rc><c>Ag</c><c>   1</c></rc>
    <rc><c>Ag</c><c>   1</c></rc>
    <rc><c>Ag</c><c>   1</c></rc>
    <rc><c>Ag</c><c>   1</c></rc>
    <rc><c>Ag</c><c>   1</c></rc>
    <rc><c>Ag</c><c>   1</c></rc>
    <rc><c>Ag</c><c>   1</c></rc>
    <rc><c>Ag</c><c>   1</c></rc>
    <rc><c>Ag</c><c>   1</c></rc>
    <rc><c>Ag</c><c>   1</c></rc>
    <rc><c>Ag</c><c>   1</c></rc>
    <rc><c>Ag</c><c>   1</c></rc>
    <rc><c>Ag</c><c>   1</c></rc>
    <rc><c>Ag</c><c>   1</c></rc>
    <rc><c>Ag</c><c>   1</c></rc>
    <rc><c>Ag</c><c>   1</c></rc>
    <rc><c>Ag</c><c>   1</c></rc>
    <rc><c>Ag</c><c>   1</c></rc>
    <rc><c>Ag</c><c>   1</c></rc>
    <rc><c>Ag</c><c>   1</c></rc>
    <rc><c>Ag</c><c>   1</c></rc>
    <rc><c>Ag</c><c>   1</c></rc>
    <rc><c>Ag</c><c>   1</c></rc>
    <rc><c>Ag</c><c>   1</c></rc>
    <rc><c>Ag</c><c>   1</c></rc>
    <rc><c>Ag</c><c>   1</c></rc>
    <rc><c>Ag</c><c>   1</c></rc>
    <rc><c>Ag</c><c>   1</c></rc>
    <rc><c>Ag</c><c>   1</c></rc>
    <rc><c>Ag</c><c>   1</c></rc>
    <rc><c>Ag</c><c>   1</c></rc>
    <rc><c>Ag</c><c>   1</c></rc>
    <rc><c>Ag</c><c>   1</c></rc>
    <rc><c>Ag</c><c>   1</c></rc>
    <rc><c>Ag</c><c>   1</c></rc>
    <rc><c>Ag</c><c>   1</c></rc>
    <rc><c>Ag</c><c>   1</c></rc>
    <rc><c>Ag</c><c>   1</c></rc>
    <rc><c>Ag</c><c>   1</c></rc>
    <rc><c>Ag</c><c>   1</c></rc>
    <rc><c>Ag</c><c>   1</c></rc>
    <rc><c>Ag</c><c>   1</c></rc>
    <rc><c>Ag</c><c>   1</c></rc>
    <rc><c>Ag</c><c>   1</c></rc>
    <rc><c>Ag</c><c>   1</c></rc>
    <rc><c>Ag</c><c>   1</c></rc>
    <rc><c>Ag</c><c>   1</c></rc>
    <rc><c>Ag</c><c>   1</c></rc>
    <rc><c>Ag</c><c>   1</c></rc>
    <rc><c>Ag</c><c>   1</c></rc>
    <rc><c>Ag</c><c>   1</c></rc>
    <rc><c>Ag</c><c>   1</c></rc>
    <rc><c>Ag</c><c>   1</c></rc>
    <rc><c>Ag</c><c>   1</c></rc>
    <rc><c>Ag</c><c>   1</c></rc>
    <rc><c>Ag</c><c>   1</c></rc>
    <rc><c>Ag</c><c>   1</c></rc>
    <rc><c>Ag</c><c>   1</c></rc>
    <rc><c>Ag</c><c>   1</c></rc>
    <rc><c>Ag</c><c>   1</c></rc>
    <rc><c>Ag</c><c>   1</c></rc>
    <rc><c>Ag</c><c>   1</c></rc>
    <rc><c>Ag</c><c>   1</c></rc>
    <rc><c>Ag</c><c>   1</c></rc>
    <rc><c>Ag</c><c>   1</c></rc>
    <rc><c>Ag</c><c>   1</c></rc>
    <rc><c>Ag</c><c>   1</c></rc>
    <rc><c>Ag</c><c>   1</c></rc>
    <rc><c>Ag</c><c>   1</c></rc>
    <rc><c>Ag</c><c>   1</c></rc>
    <rc><c>Ag</c><c>   1</c></rc>
    <rc><c>Ag</c><c>   1</c></rc>
    <rc><c>Ag</c><c>   1</c></rc>
    <rc><c>Ag</c><c>   1</c></rc>
    <rc><c>Ag</c><c>   1</c></rc>
    <rc><c>Ag</c><c>   1</c></rc>
    <rc><c>Ag</c><c>   1</c></rc>
    <rc><c>Ag</c><c>   1</c></rc>
    <rc><c>Ag</c><c>   1</c></rc>
    <rc><c>Ag</c><c>   1</c></rc>
    <rc><c>Ag</c><c>   1</c></rc>
    <rc><c>Ag</c><c>   1</c></rc>
    <rc><c>Ag</c><c>   1</c></rc>
    <rc><c>Ag</c><c>   1</c></rc>
    <rc><c>Ag</c><c>   1</c></rc>
    <rc><c>Ag</c><c>   1</c></rc>
    <rc><c>Ag</c><c>   1</c></rc>
    <rc><c>Ag</c><c>   1</c></rc>
    <rc><c>Ag</c><c>   1</c></rc>
    <rc><c>Ag</c><c>   1</c></rc>
    <rc><c>Ag</c><c>   1</c></rc>
    <rc><c>Ag</c><c>   1</c></rc>
    <rc><c>Ag</c><c>   1</c></rc>
    <rc><c>Ag</c><c>   1</c></rc>
    <rc><c>Ag</c><c>   1</c></rc>
    <rc><c>Se</c><c>   2</c></rc>
    <rc><c>Se</c><c>   2</c></rc>
    <rc><c>Se</c><c>   2</c></rc>
    <rc><c>Se</c><c>   2</c></rc>
    <rc><c>Se</c><c>   2</c></rc>
    <rc><c>Se</c><c>   2</c></rc>
    <rc><c>Se</c><c>   2</c></rc>
    <rc><c>Se</c><c>   2</c></rc>
    <rc><c>Se</c><c>   2</c></rc>
    <rc><c>Se</c><c>   2</c></rc>
    <rc><c>Se</c><c>   2</c></rc>
    <rc><c>Se</c><c>   2</c></rc>
    <rc><c>Se</c><c>   2</c></rc>
    <rc><c>Se</c><c>   2</c></rc>
    <rc><c>Se</c><c>   2</c></rc>
    <rc><c>Se</c><c>   2</c></rc>
    <rc><c>Se</c><c>   2</c></rc>
    <rc><c>Se</c><c>   2</c></rc>
    <rc><c>Se</c><c>   2</c></rc>
    <rc><c>Se</c><c>   2</c></rc>
    <rc><c>Se</c><c>   2</c></rc>
    <rc><c>Se</c><c>   2</c></rc>
    <rc><c>Se</c><c>   2</c></rc>
    <rc><c>Se</c><c>   2</c></rc>
    <rc><c>Se</c><c>   2</c></rc>
    <rc><c>Se</c><c>   2</c></rc>
    <rc><c>Se</c><c>   2</c></rc>
    <rc><c>Se</c><c>   2</c></rc>
    <rc><c>Se</c><c>   2</c></rc>
    <rc><c>Se</c><c>   2</c></rc>
    <rc><c>Se</c><c>   2</c></rc>
    <rc><c>Se</c><c>   2</c></rc>
    <rc><c>Se</c><c>   2</c></rc>
    <rc><c>Se</c><c>   2</c></rc>
    <rc><c>Se</c><c>   2</c></rc>
    <rc><c>Se</c><c>   2</c></rc>
    <rc><c>Se</c><c>   2</c></rc>
    <rc><c>Se</c><c>   2</c></rc>
    <rc><c>Se</c><c>   2</c></rc>
    <rc><c>Se</c><c>   2</c></rc>
    <rc><c>Se</c><c>   2</c></rc>
    <rc><c>Se</c><c>   2</c></rc>
    <rc><c>Se</c><c>   2</c></rc>
    <rc><c>Se</c><c>   2</c></rc>
    <rc><c>Se</c><c>   2</c></rc>
    <rc><c>Se</c><c>   2</c></rc>
    <rc><c>Se</c><c>   2</c></rc>
    <rc><c>Se</c><c>   2</c></rc>
   </set>
  </array>
  <array name="atomtypes" >
   <dimension dim="1">type</dimension>
   <field type="int">atomspertype</field>
   <field type="string">element</field>
   <field>mass</field>
   <field>valence</field>
   <field type="string">pseudopotential</field>
   <set>
    <rc><c>  96</c><c>Ag</c><c>    107.86800000</c><c>     11.00000000</c><c>  PAW_PBE Ag 02Apr2005                  </c></rc>
    <rc><c>  48</c><c>Se</c><c>     78.96000000</c><c>      6.00000000</c><c>  PAW_PBE Se 06Sep2000                  </c></rc>
   </set>
  </array>
 </atominfo>
 <structure name="initialpos" >
  <crystal>
   <varray name="basis" >
    <v>      14.01039598       0.00139138       0.00000000 </v>
    <v>      -0.00150196      13.76691092       0.00000000 </v>
    <v>       0.00000000       0.00000000      14.55019386 </v>
   </varray>
   <i name="volume">   2806.43958022 </i>
   <varray name="rec_basis" >
    <v>       0.07137557       0.00000779       0.00000000 </v>
    <v>      -0.00000721       0.07263794       0.00000000 </v>
    <v>       0.00000000       0.00000000       0.06872761 </v>
   </varray>
  </crystal>
  <varray name="positions" >
   <v>       0.42987898       0.17167077       0.33247735 </v>
   <v>       0.92987898       0.17167077       0.33247735 </v>
   <v>       0.42987898       0.67167077       0.33247735 </v>
   <v>       0.92987898       0.67167077       0.33247735 </v>
   <v>       0.42987898       0.17167077       0.66581068 </v>
   <v>       0.92987898       0.17167077       0.66581068 </v>
   <v>       0.42987898       0.67167077       0.66581068 </v>
   <v>       0.92987898       0.67167077       0.66581068 </v>
   <v>       0.42987898       0.17167077       0.99914401 </v>
   <v>       0.92987898       0.17167077       0.99914401 </v>
   <v>       0.42987898       0.67167077       0.99914401 </v>
   <v>       0.92987898       0.67167077       0.99914401 </v>
   <v>       0.07012102       0.32832923       0.33247735 </v>
   <v>       0.57012102       0.32832923       0.33247735 </v>
   <v>       0.07012102       0.82832923       0.33247735 </v>
   <v>       0.57012102       0.82832923       0.33247735 </v>
   <v>       0.07012102       0.32832923       0.66581068 </v>
   <v>       0.57012102       0.32832923       0.66581068 </v>
   <v>       0.07012102       0.82832923       0.66581068 </v>
   <v>       0.57012102       0.82832923       0.66581068 </v>
   <v>       0.07012102       0.32832923       0.99914401 </v>
   <v>       0.57012102       0.32832923       0.99914401 </v>
   <v>       0.07012102       0.82832923       0.99914401 </v>
   <v>       0.57012102       0.82832923       0.99914401 </v>
   <v>       0.32012053       0.42167367       0.05641075 </v>
   <v>       0.82012053       0.42167367       0.05641075 </v>
   <v>       0.32012053       0.92167367       0.05641075 </v>
   <v>       0.82012053       0.92167367       0.05641075 </v>
   <v>       0.32012053       0.42167367       0.38974408 </v>
   <v>       0.82012053       0.42167367       0.38974408 </v>
   <v>       0.32012053       0.92167367       0.38974408 </v>
   <v>       0.82012053       0.92167367       0.38974408 </v>
   <v>       0.32012053       0.42167367       0.72307741 </v>
   <v>       0.82012053       0.42167367       0.72307741 </v>
   <v>       0.32012053       0.92167367       0.72307741 </v>
   <v>       0.82012053       0.92167367       0.72307741 </v>
   <v>       0.17987947       0.07832633       0.05641075 </v>
   <v>       0.67987947       0.07832633       0.05641075 </v>
   <v>       0.17987947       0.57832633       0.05641075 </v>
   <v>       0.67987947       0.57832633       0.05641075 </v>
   <v>       0.17987947       0.07832633       0.38974408 </v>
   <v>       0.67987947       0.07832633       0.38974408 </v>
   <v>       0.17987947       0.57832633       0.38974408 </v>
   <v>       0.67987947       0.57832633       0.38974408 </v>
   <v>       0.17987947       0.07832633       0.72307741 </v>
   <v>       0.67987947       0.07832633       0.72307741 </v>
   <v>       0.17987947       0.57832633       0.72307741 </v>
   <v>       0.67987947       0.57832633       0.72307741 </v>
   <v>       0.17987776       0.32832369       0.16512128 </v>
   <v>       0.67987776       0.32832369       0.16580856 </v>
   <v>       0.17987776       0.82832369       0.16580856 </v>
   <v>       0.67987776       0.82832369       0.16580856 </v>
   <v>       0.17987776       0.32832369       0.49914189 </v>
   <v>       0.67987776       0.32832369       0.49914189 </v>
   <v>       0.17987776       0.82832369       0.49914189 </v>
   <v>       0.67987776       0.82832369       0.49914189 </v>
   <v>       0.17987776       0.32832369       0.83247522 </v>
   <v>       0.67987776       0.32832369       0.83247522 </v>
   <v>       0.17987776       0.82832369       0.83247522 </v>
   <v>       0.67987776       0.82832369       0.83247522 </v>
   <v>       0.32012224       0.17167631       0.16580856 </v>
   <v>       0.82012224       0.17167631       0.16580856 </v>
   <v>       0.32012224       0.67167631       0.16580856 </v>
   <v>       0.82012224       0.67167631       0.16580856 </v>
   <v>       0.32012224       0.17167631       0.49914189 </v>
   <v>       0.82012224       0.17167631       0.49914189 </v>
   <v>       0.32012224       0.67167631       0.49914189 </v>
   <v>       0.82012224       0.67167631       0.49914189 </v>
   <v>       0.32012224       0.17167631       0.83247522 </v>
   <v>       0.82012224       0.17167631       0.83247522 </v>
   <v>       0.32012224       0.67167631       0.83247522 </v>
   <v>       0.82012224       0.67167631       0.83247522 </v>
   <v>       0.42987656       0.42167494       0.22308000 </v>
   <v>       0.92987656       0.42167494       0.22308000 </v>
   <v>       0.42987656       0.92167494       0.22308000 </v>
   <v>       0.92987656       0.92167494       0.22308000 </v>
   <v>       0.42987656       0.42167494       0.55641333 </v>
   <v>       0.92987656       0.42167494       0.55641333 </v>
   <v>       0.42987656       0.92167494       0.55641333 </v>
   <v>       0.92987656       0.92167494       0.55641333 </v>
   <v>       0.42987656       0.42167494       0.88974666 </v>
   <v>       0.92987656       0.42167494       0.88974666 </v>
   <v>       0.42987656       0.92167494       0.88974666 </v>
   <v>       0.92987656       0.92167494       0.88974666 </v>
   <v>       0.07012344       0.07832506       0.22308000 </v>
   <v>       0.57012344       0.07832506       0.22308000 </v>
   <v>       0.07012344       0.57832506       0.22308000 </v>
   <v>       0.57012344       0.57832506       0.22308000 </v>
   <v>       0.07012344       0.07832506       0.55641333 </v>
   <v>       0.57012344       0.07832506       0.55641333 </v>
   <v>       0.07012344       0.57832506       0.55641333 </v>
   <v>       0.57012344       0.57832506       0.55641333 </v>
   <v>       0.07012344       0.07832506       0.88974666 </v>
   <v>       0.57012344       0.07832506       0.88974666 </v>
   <v>       0.07012344       0.57832506       0.88974666 </v>
   <v>       0.57012344       0.57832506       0.88974666 </v>
   <v>       0.00000000       0.00000000       0.05479365 </v>
   <v>       0.50000000       0.00000000       0.05479365 </v>
   <v>       0.00000000       0.50000000       0.05479365 </v>
   <v>       0.50000000       0.50000000       0.05479365 </v>
   <v>       0.00000000       0.00000000       0.38812698 </v>
   <v>       0.50000000       0.00000000       0.38812698 </v>
   <v>       0.00000000       0.50000000       0.38812698 </v>
   <v>       0.50000000       0.50000000       0.38812698 </v>
   <v>       0.00000000       0.00000000       0.72146032 </v>
   <v>       0.50000000       0.00000000       0.72146032 </v>
   <v>       0.00000000       0.50000000       0.72146032 </v>
   <v>       0.50000000       0.50000000       0.72146032 </v>
   <v>       0.25000000       0.00000000       0.22145206 </v>
   <v>       0.75000000       0.00000000       0.22145206 </v>
   <v>       0.25000000       0.50000000       0.22145206 </v>
   <v>       0.75000000       0.50000000       0.22145206 </v>
   <v>       0.25000000       0.00000000       0.55478539 </v>
   <v>       0.75000000       0.00000000       0.55478539 </v>
   <v>       0.25000000       0.50000000       0.55478539 </v>
   <v>       0.75000000       0.50000000       0.55478539 </v>
   <v>       0.25000000       0.00000000       0.88811873 </v>
   <v>       0.75000000       0.00000000       0.88811873 </v>
   <v>       0.25000000       0.50000000       0.88811873 </v>
   <v>       0.75000000       0.50000000       0.88811873 </v>
   <v>       0.00000000       0.25000000       0.16743769 </v>
   <v>       0.50000000       0.25000000       0.16743769 </v>
   <v>       0.00000000       0.75000000       0.16743769 </v>
   <v>       0.50000000       0.75000000       0.16743769 </v>
   <v>       0.00000000       0.25000000       0.50077102 </v>
   <v>       0.50000000       0.25000000       0.50077102 </v>
   <v>       0.00000000       0.75000000       0.50077102 </v>
   <v>       0.50000000       0.75000000       0.50077102 </v>
   <v>       0.00000000       0.25000000       0.83410435 </v>
   <v>       0.50000000       0.25000000       0.83410435 </v>
   <v>       0.00000000       0.75000000       0.83410435 </v>
   <v>       0.50000000       0.75000000       0.83410435 </v>
   <v>       0.25000000       0.25000000       0.00076332 </v>
   <v>       0.75000000       0.25000000       0.00076332 </v>
   <v>       0.25000000       0.75000000       0.00076332 </v>
   <v>       0.75000000       0.75000000       0.00076332 </v>
   <v>       0.25000000       0.25000000       0.33409665 </v>
   <v>       0.75000000       0.25000000       0.33409665 </v>
   <v>       0.25000000       0.75000000       0.33409665 </v>
   <v>       0.75000000       0.75000000       0.33409665 </v>
   <v>       0.25000000       0.25000000       0.66742999 </v>
   <v>       0.75000000       0.25000000       0.66742999 </v>
   <v>       0.25000000       0.75000000       0.66742999 </v>
   <v>       0.75000000       0.75000000       0.66742999 </v>
  </varray>
 </structure>
 <calculation>
  <scstep>
   <time name="dav">  919.73  922.30</time>
   <time name="total">  923.26  925.88</time>
   <energy>
    <i name="alphaZ">   4890.97834259 </i>
    <i name="ewald"> -98842.86096316 </i>
    <i name="hartreedc"> -25789.40285547 </i>
    <i name="XCdc">   -889.86169511 </i>
    <i name="pawpsdc"> 106286.73805879 </i>
    <i name="pawaedc">-101298.59693205 </i>
    <i name="eentropy">     -0.04241169 </i>
    <i name="bandstr">  14366.11660832 </i>
    <i name="atom"> 111881.97810035 </i>
    <i name="e_fr_energy">  10605.04625257 </i>
    <i name="e_wo_entrp">  10605.08866426 </i>
    <i name="e_0_energy">  10605.06745841 </i>
   </energy>
  </scstep>
  <scstep>
   <time name="dav">  955.20  957.34</time>
   <time name="total">  955.21  957.35</time>
   <energy>
    <i name="e_fr_energy">    151.46052339 </i>
    <i name="e_wo_entrp">    151.47348344 </i>
    <i name="e_0_energy">    151.46700341 </i>
   </energy>
  </scstep>
  <scstep>
   <time name="dav">  992.94  995.44</time>
   <time name="total">  992.95  995.44</time>
   <energy>
    <i name="e_fr_energy">   -517.93055629 </i>
    <i name="e_wo_entrp">   -517.92444045 </i>
    <i name="e_0_energy">   -517.92749837 </i>
   </energy>
  </scstep>
  <scstep>
   <time name="dav">  988.47  990.87</time>
   <time name="total">  988.48  990.88</time>
   <energy>
    <i name="e_fr_energy">   -535.41769020 </i>
    <i name="e_wo_entrp">   -535.41222308 </i>
    <i name="e_0_energy">   -535.41495664 </i>
   </energy>
  </scstep>
  <scstep>
   <time name="dav">  985.85  988.35</time>
   <time name="total"> 1000.13 1002.66</time>
   <energy>
    <i name="e_fr_energy">   -535.67142804 </i>
    <i name="e_wo_entrp">   -535.66595281 </i>
    <i name="e_0_energy">   -535.66869042 </i>
   </energy>
  </scstep>
  <scstep>
   <time name="dav">  949.56  952.05</time>
   <time name="total">  966.85  969.38</time>
   <energy>
    <i name="e_fr_energy">   -504.98321352 </i>
    <i name="e_wo_entrp">   -504.96772611 </i>
    <i name="e_0_energy">   -504.97546981 </i>
   </energy>
  </scstep>
  <scstep>
   <time name="dav">  944.31  946.59</time>
   <time name="total">  963.70  966.04</time>
   <energy>
    <i name="e_fr_energy">   -505.65757843 </i>
    <i name="e_wo_entrp">   -505.64181689 </i>
    <i name="e_0_energy">   -505.64969766 </i>
   </energy>
  </scstep>
  <scstep>
   <time name="dav">  954.55  956.82</time>
   <time name="total">  972.51  974.82</time>
   <energy>
    <i name="e_fr_energy">   -505.18195046 </i>
    <i name="e_wo_entrp">   -505.16733554 </i>
    <i name="e_0_energy">   -505.17464300 </i>
   </energy>
  </scstep>
  <scstep>
   <time name="dav">  961.98  964.18</time>
   <time name="total">  981.55  983.80</time>
   <energy>
    <i name="e_fr_energy">   -505.12626215 </i>
    <i name="e_wo_entrp">   -505.11103593 </i>
    <i name="e_0_energy">   -505.11864904 </i>
   </energy>
  </scstep>
  <scstep>
   <time name="dav">  969.43  972.10</time>
   <time name="total">  987.47  990.18</time>
   <energy>
    <i name="e_fr_energy">   -505.12839266 </i>
    <i name="e_wo_entrp">   -505.11310855 </i>
    <i name="e_0_energy">   -505.12075060 </i>
   </energy>
  </scstep>
  <scstep>
   <time name="dav">  968.10  970.62</time>
   <time name="total">  986.77  989.34</time>
   <energy>
    <i name="e_fr_energy">   -505.12826682 </i>
    <i name="e_wo_entrp">   -505.11305090 </i>
    <i name="e_0_energy">   -505.12065886 </i>
   </energy>
  </scstep>
  <scstep>
   <time name="dav">  957.90  960.32</time>
   <time name="total">  977.32  979.79</time>
   <energy>
    <i name="e_fr_energy">   -505.12822474 </i>
    <i name="e_wo_entrp">   -505.11298863 </i>
    <i name="e_0_energy">   -505.12060668 </i>
   </energy>
  </scstep>
  <scstep>
   <time name="dav"> 1004.25 1006.72</time>
   <time name="total"> 1022.57 1025.09</time>
   <energy>
    <i name="e_fr_energy">   -505.12822478 </i>
    <i name="e_wo_entrp">   -505.11299156 </i>
    <i name="e_0_energy">   -505.12060817 </i>
   </energy>
  </scstep>
  <scstep>
   <time name="dav">  952.99  955.33</time>
   <time name="total">  971.37  973.75</time>
   <energy>
    <i name="e_fr_energy">   -505.12822365 </i>
    <i name="e_wo_entrp">   -505.11299155 </i>
    <i name="e_0_energy">   -505.12060760 </i>
   </energy>
  </scstep>
  <scstep>
   <time name="dav">  985.73  988.24</time>
   <time name="total"> 1004.53 1007.09</time>
   <energy>
    <i name="e_fr_energy">   -505.12822214 </i>
    <i name="e_wo_entrp">   -505.11299025 </i>
    <i name="e_0_energy">   -505.12060620 </i>
   </energy>
  </scstep>
  <scstep>
   <time name="dav">  894.97  897.23</time>
   <time name="total">  898.72  900.99</time>
   <energy>
    <i name="alphaZ">   4890.97834259 </i>
    <i name="ewald"> -98842.86096316 </i>
    <i name="hartreedc"> -24658.22324844 </i>
    <i name="XCdc">   -922.44842269 </i>
    <i name="pawpsdc"> 122252.77935097 </i>
    <i name="pawaedc">-117445.04058586 </i>
    <i name="eentropy">     -0.01523169 </i>
    <i name="bandstr">   2337.72443578 </i>
    <i name="atom"> 111881.97810035 </i>
    <i name="e_fr_energy">   -505.12822214 </i>
    <i name="e_wo_entrp">   -505.11299045 </i>
    <i name="e_0_energy">   -505.12060629 </i>
   </energy>
  </scstep>
  <structure>
   <crystal>
    <varray name="basis" >
     <v>      14.01039598       0.00139138       0.00000000 </v>
     <v>      -0.00150196      13.76691092       0.00000000 </v>
     <v>       0.00000000       0.00000000      14.55019386 </v>
    </varray>
    <i name="volume">   2806.43958022 </i>
    <varray name="rec_basis" >
     <v>       0.07137557       0.00000779       0.00000000 </v>
     <v>      -0.00000721       0.07263794       0.00000000 </v>
     <v>       0.00000000       0.00000000       0.06872761 </v>
    </varray>
   </crystal>
   <varray name="positions" >
    <v>       0.42987898       0.17167077       0.33247735 </v>
    <v>       0.92987898       0.17167077       0.33247735 </v>
    <v>       0.42987898       0.67167077       0.33247735 </v>
    <v>       0.92987898       0.67167077       0.33247735 </v>
    <v>       0.42987898       0.17167077       0.66581068 </v>
    <v>       0.92987898       0.17167077       0.66581068 </v>
    <v>       0.42987898       0.67167077       0.66581068 </v>
    <v>       0.92987898       0.67167077       0.66581068 </v>
    <v>       0.42987898       0.17167077       0.99914401 </v>
    <v>       0.92987898       0.17167077       0.99914401 </v>
    <v>       0.42987898       0.67167077       0.99914401 </v>
    <v>       0.92987898       0.67167077       0.99914401 </v>
    <v>       0.07012102       0.32832923       0.33247735 </v>
    <v>       0.57012102       0.32832923       0.33247735 </v>
    <v>       0.07012102       0.82832923       0.33247735 </v>
    <v>       0.57012102       0.82832923       0.33247735 </v>
    <v>       0.07012102       0.32832923       0.66581068 </v>
    <v>       0.57012102       0.32832923       0.66581068 </v>
    <v>       0.07012102       0.82832923       0.66581068 </v>
    <v>       0.57012102       0.82832923       0.66581068 </v>
    <v>       0.07012102       0.32832923       0.99914401 </v>
    <v>       0.57012102       0.32832923       0.99914401 </v>
    <v>       0.07012102       0.82832923       0.99914401 </v>
    <v>       0.57012102       0.82832923       0.99914401 </v>
    <v>       0.32012053       0.42167367       0.05641075 </v>
    <v>       0.82012053       0.42167367       0.05641075 </v>
    <v>       0.32012053       0.92167367       0.05641075 </v>
    <v>       0.82012053       0.92167367       0.05641075 </v>
    <v>       0.32012053       0.42167367       0.38974408 </v>
    <v>       0.82012053       0.42167367       0.38974408 </v>
    <v>       0.32012053       0.92167367       0.38974408 </v>
    <v>       0.82012053       0.92167367       0.38974408 </v>
    <v>       0.32012053       0.42167367       0.72307741 </v>
    <v>       0.82012053       0.42167367       0.72307741 </v>
    <v>       0.32012053       0.92167367       0.72307741 </v>
    <v>       0.82012053       0.92167367       0.72307741 </v>
    <v>       0.17987947       0.07832633       0.05641075 </v>
    <v>       0.67987947       0.07832633       0.05641075 </v>
    <v>       0.17987947       0.57832633       0.05641075 </v>
    <v>       0.67987947       0.57832633       0.05641075 </v>
    <v>       0.17987947       0.07832633       0.38974408 </v>
    <v>       0.67987947       0.07832633       0.38974408 </v>
    <v>       0.17987947       0.57832633       0.38974408 </v>
    <v>       0.67987947       0.57832633       0.38974408 </v>
    <v>       0.17987947       0.07832633       0.72307741 </v>
    <v>       0.67987947       0.07832633       0.72307741 </v>
    <v>       0.17987947       0.57832633       0.72307741 </v>
    <v>       0.67987947       0.57832633       0.72307741 </v>
    <v>       0.17987776       0.32832369       0.16512128 </v>
    <v>       0.67987776       0.32832369       0.16580856 </v>
    <v>       0.17987776       0.82832369       0.16580856 </v>
    <v>       0.67987776       0.82832369       0.16580856 </v>
    <v>       0.17987776       0.32832369       0.49914189 </v>
    <v>       0.67987776       0.32832369       0.49914189 </v>
    <v>       0.17987776       0.82832369       0.49914189 </v>
    <v>       0.67987776       0.82832369       0.49914189 </v>
    <v>       0.17987776       0.32832369       0.83247522 </v>
    <v>       0.67987776       0.32832369       0.83247522 </v>
    <v>       0.17987776       0.82832369       0.83247522 </v>
    <v>       0.67987776       0.82832369       0.83247522 </v>
    <v>       0.32012224       0.17167631       0.16580856 </v>
    <v>       0.82012224       0.17167631       0.16580856 </v>
    <v>       0.32012224       0.67167631       0.16580856 </v>
    <v>       0.82012224       0.67167631       0.16580856 </v>
    <v>       0.32012224       0.17167631       0.49914189 </v>
    <v>       0.82012224       0.17167631       0.49914189 </v>
    <v>       0.32012224       0.67167631       0.49914189 </v>
    <v>       0.82012224       0.67167631       0.49914189 </v>
    <v>       0.32012224       0.17167631       0.83247522 </v>
    <v>       0.82012224       0.17167631       0.83247522 </v>
    <v>       0.32012224       0.67167631       0.83247522 </v>
    <v>       0.82012224       0.67167631       0.83247522 </v>
    <v>       0.42987656       0.42167494       0.22308000 </v>
    <v>       0.92987656       0.42167494       0.22308000 </v>
    <v>       0.42987656       0.92167494       0.22308000 </v>
    <v>       0.92987656       0.92167494       0.22308000 </v>
    <v>       0.42987656       0.42167494       0.55641333 </v>
    <v>       0.92987656       0.42167494       0.55641333 </v>
    <v>       0.42987656       0.92167494       0.55641333 </v>
    <v>       0.92987656       0.92167494       0.55641333 </v>
    <v>       0.42987656       0.42167494       0.88974666 </v>
    <v>       0.92987656       0.42167494       0.88974666 </v>
    <v>       0.42987656       0.92167494       0.88974666 </v>
    <v>       0.92987656       0.92167494       0.88974666 </v>
    <v>       0.07012344       0.07832506       0.22308000 </v>
    <v>       0.57012344       0.07832506       0.22308000 </v>
    <v>       0.07012344       0.57832506       0.22308000 </v>
    <v>       0.57012344       0.57832506       0.22308000 </v>
    <v>       0.07012344       0.07832506       0.55641333 </v>
    <v>       0.57012344       0.07832506       0.55641333 </v>
    <v>       0.07012344       0.57832506       0.55641333 </v>
    <v>       0.57012344       0.57832506       0.55641333 </v>
    <v>       0.07012344       0.07832506       0.88974666 </v>
    <v>       0.57012344       0.07832506       0.88974666 </v>
    <v>       0.07012344       0.57832506       0.88974666 </v>
    <v>       0.57012344       0.57832506       0.88974666 </v>
    <v>       0.00000000       0.00000000       0.05479365 </v>
    <v>       0.50000000       0.00000000       0.05479365 </v>
    <v>       0.00000000       0.50000000       0.05479365 </v>
    <v>       0.50000000       0.50000000       0.05479365 </v>
    <v>       0.00000000       0.00000000       0.38812698 </v>
    <v>       0.50000000       0.00000000       0.38812698 </v>
    <v>       0.00000000       0.50000000       0.38812698 </v>
    <v>       0.50000000       0.50000000       0.38812698 </v>
    <v>       0.00000000       0.00000000       0.72146032 </v>
    <v>       0.50000000       0.00000000       0.72146032 </v>
    <v>       0.00000000       0.50000000       0.72146032 </v>
    <v>       0.50000000       0.50000000       0.72146032 </v>
    <v>       0.25000000       0.00000000       0.22145206 </v>
    <v>       0.75000000       0.00000000       0.22145206 </v>
    <v>       0.25000000       0.50000000       0.22145206 </v>
    <v>       0.75000000       0.50000000       0.22145206 </v>
    <v>       0.25000000       0.00000000       0.55478539 </v>
    <v>       0.75000000       0.00000000       0.55478539 </v>
    <v>       0.25000000       0.50000000       0.55478539 </v>
    <v>       0.75000000       0.50000000       0.55478539 </v>
    <v>       0.25000000       0.00000000       0.88811873 </v>
    <v>       0.75000000       0.00000000       0.88811873 </v>
    <v>       0.25000000       0.50000000       0.88811873 </v>
    <v>       0.75000000       0.50000000       0.88811873 </v>
    <v>       0.00000000       0.25000000       0.16743769 </v>
    <v>       0.50000000       0.25000000       0.16743769 </v>
    <v>       0.00000000       0.75000000       0.16743769 </v>
    <v>       0.50000000       0.75000000       0.16743769 </v>
    <v>       0.00000000       0.25000000       0.50077102 </v>
    <v>       0.50000000       0.25000000       0.50077102 </v>
    <v>       0.00000000       0.75000000       0.50077102 </v>
    <v>       0.50000000       0.75000000       0.50077102 </v>
    <v>       0.00000000       0.25000000       0.83410435 </v>
    <v>       0.50000000       0.25000000       0.83410435 </v>
    <v>       0.00000000       0.75000000       0.83410435 </v>
    <v>       0.50000000       0.75000000       0.83410435 </v>
    <v>       0.25000000       0.25000000       0.00076332 </v>
    <v>       0.75000000       0.25000000       0.00076332 </v>
    <v>       0.25000000       0.75000000       0.00076332 </v>
    <v>       0.75000000       0.75000000       0.00076332 </v>
    <v>       0.25000000       0.25000000       0.33409665 </v>
    <v>       0.75000000       0.25000000       0.33409665 </v>
    <v>       0.25000000       0.75000000       0.33409665 </v>
    <v>       0.75000000       0.75000000       0.33409665 </v>
    <v>       0.25000000       0.25000000       0.66742999 </v>
    <v>       0.75000000       0.25000000       0.66742999 </v>
    <v>       0.25000000       0.75000000       0.66742999 </v>
    <v>       0.75000000       0.75000000       0.66742999 </v>
   </varray>
  </structure>
  <varray name="forces" >
   <v>      -0.00053072       0.00018771       0.00005138 </v>
   <v>       0.00010521       0.00021083       0.00010756 </v>
   <v>      -0.00004968       0.00001524      -0.00003732 </v>
   <v>      -0.00000442       0.00004443      -0.00006201 </v>
   <v>      -0.00000059       0.00005322      -0.00032841 </v>
   <v>      -0.00000989       0.00004331      -0.00032873 </v>
   <v>      -0.00001980       0.00008495      -0.00005234 </v>
   <v>      -0.00001668       0.00010191      -0.00005240 </v>
   <v>       0.00084816       0.00002159       0.00010907 </v>
   <v>      -0.00019418       0.00001404       0.00005258 </v>
   <v>       0.00000216       0.00013738      -0.00006243 </v>
   <v>      -0.00003277       0.00017215      -0.00003781 </v>
   <v>       0.00766354      -0.00078434      -0.01007886 </v>
   <v>      -0.00001753      -0.00005756       0.00001281 </v>
   <v>       0.00006909      -0.00006483      -0.00001653 </v>
   <v>       0.00000778      -0.00004695      -0.00002787 </v>
   <v>       0.00002956      -0.00005859      -0.00026767 </v>
   <v>       0.00002433      -0.00007283      -0.00016190 </v>
   <v>       0.00002827      -0.00007296      -0.00005913 </v>
   <v>       0.00001263      -0.00007497      -0.00005260 </v>
   <v>      -0.00797699       0.00062184      -0.01052300 </v>
   <v>       0.00011473      -0.00008448       0.00001294 </v>
   <v>       0.00002222      -0.00006072      -0.00001666 </v>
   <v>       0.00001721      -0.00010253      -0.00002797 </v>
   <v>       0.00705752       0.00600103      -0.00346991 </v>
   <v>       0.00001271      -0.00000750       0.00006431 </v>
   <v>       0.00003008      -0.00000608       0.00016812 </v>
   <v>      -0.00001212       0.00002644       0.00006038 </v>
   <v>      -0.00081926      -0.00084660      -0.00115168 </v>
   <v>       0.00009698      -0.00002670       0.00000054 </v>
   <v>       0.00002495      -0.00000394       0.00008089 </v>
   <v>       0.00004392       0.00002051       0.00004885 </v>
   <v>       0.00003716       0.00005554       0.00000403 </v>
   <v>      -0.00000163       0.00003504       0.00000879 </v>
   <v>       0.00001535       0.00007019      -0.00001799 </v>
   <v>       0.00001169       0.00002151       0.00004621 </v>
   <v>      -0.00013983      -0.00086295       0.00032847 </v>
   <v>       0.00000238      -0.00000418       0.00009407 </v>
   <v>       0.00002031      -0.00016349       0.00032954 </v>
   <v>       0.00007528      -0.00001038       0.00009402 </v>
   <v>       0.00012110       0.00063263      -0.00011386 </v>
   <v>      -0.00003799      -0.00000482       0.00005286 </v>
   <v>       0.00002995      -0.00019594      -0.00011417 </v>
   <v>      -0.00003369      -0.00003055       0.00005294 </v>
   <v>      -0.00005535      -0.00003623      -0.00002552 </v>
   <v>      -0.00003442      -0.00002805       0.00002844 </v>
   <v>      -0.00000016      -0.00001358      -0.00002495 </v>
   <v>      -0.00003377      -0.00003041       0.00002835 </v>
   <v>      -0.00191733       0.00394425       0.03737355 </v>
   <v>       0.00000454      -0.00000604      -0.00003411 </v>
   <v>       0.00005701       0.00002066       0.00000298 </v>
   <v>      -0.00002321      -0.00000483       0.00000689 </v>
   <v>       0.00017088      -0.00020492      -0.00069323 </v>
   <v>      -0.00010523      -0.00002582      -0.00006139 </v>
   <v>       0.00004061       0.00002846      -0.00006999 </v>
   <v>      -0.00001710       0.00000263      -0.00000509 </v>
   <v>      -0.00012697       0.00023376      -0.00070097 </v>
   <v>       0.00013843      -0.00000695      -0.00006069 </v>
   <v>      -0.00001253      -0.00021928      -0.00006965 </v>
   <v>       0.00000486      -0.00001354      -0.00000506 </v>
   <v>       0.00023076      -0.00019960       0.00234645 </v>
   <v>       0.00012171      -0.00001998      -0.00001937 </v>
   <v>      -0.00016244      -0.00087716       0.00029203 </v>
   <v>       0.00004008      -0.00001445       0.00002356 </v>
   <v>      -0.00073263       0.00066119      -0.00136370 </v>
   <v>       0.00008865      -0.00001277      -0.00004203 </v>
   <v>       0.00000965      -0.00000366      -0.00003290 </v>
   <v>       0.00001316      -0.00000168      -0.00001018 </v>
   <v>       0.00066864      -0.00085941      -0.00137162 </v>
   <v>      -0.00009854      -0.00001841      -0.00004125 </v>
   <v>       0.00000180       0.00007815      -0.00003294 </v>
   <v>       0.00001371       0.00000383      -0.00001021 </v>
   <v>      -0.00025040      -0.00002935       0.00017226 </v>
   <v>       0.00011177      -0.00019920       0.00017349 </v>
   <v>      -0.00001232       0.00001679       0.00003579 </v>
   <v>       0.00002676       0.00001546       0.00003587 </v>
   <v>      -0.00001734       0.00001416      -0.00003289 </v>
   <v>       0.00002388      -0.00008223      -0.00003299 </v>
   <v>      -0.00002521       0.00002070       0.00001574 </v>
   <v>      -0.00001448       0.00000006       0.00001565 </v>
   <v>       0.00000808       0.00005694       0.00002027 </v>
   <v>      -0.00003743       0.00013729       0.00002078 </v>
   <v>       0.00006322      -0.00003412       0.00000424 </v>
   <v>       0.00000618       0.00003356       0.00000444 </v>
   <v>       0.00002491       0.00016733       0.00023506 </v>
   <v>      -0.00002975       0.00000110       0.00003875 </v>
   <v>       0.00032763      -0.00020102       0.00023646 </v>
   <v>       0.00002622      -0.00001685       0.00003923 </v>
   <v>      -0.00000164       0.00004264      -0.00001497 </v>
   <v>      -0.00003862       0.00005811      -0.00000350 </v>
   <v>       0.00006506      -0.00002514      -0.00001488 </v>
   <v>      -0.00001255      -0.00001203      -0.00000370 </v>
   <v>      -0.00007911      -0.00009279       0.00003877 </v>
   <v>       0.00002520      -0.00010432      -0.00000120 </v>
   <v>      -0.00002630      -0.00001030       0.00003906 </v>
   <v>      -0.00002617      -0.00001442      -0.00000107 </v>
   <v>       0.00017672      -0.00000602      -0.00013852 </v>
   <v>      -0.00010550       0.00004058      -0.00010525 </v>
   <v>      -0.00048336       0.00031793      -0.00004429 </v>
   <v>      -0.00024458      -0.00010567      -0.00023948 </v>
   <v>      -0.00000161       0.00002632      -0.00019838 </v>
   <v>       0.00009772      -0.00001888      -0.00012169 </v>
   <v>       0.00012738      -0.00050475      -0.00054895 </v>
   <v>      -0.00005528       0.00001038      -0.00003133 </v>
   <v>       0.00000552       0.00005668       0.00005816 </v>
   <v>       0.00002799       0.00001911      -0.00004097 </v>
   <v>       0.00003632      -0.00002698      -0.00003266 </v>
   <v>       0.00004106      -0.00004791      -0.00002089 </v>
   <v>      -0.00006570      -0.00010366      -0.00031629 </v>
   <v>      -0.00002781       0.00000489      -0.00003931 </v>
   <v>      -0.00252707      -0.00497429      -0.00085883 </v>
   <v>      -0.00010568       0.00006842      -0.00005314 </v>
   <v>       0.00004237      -0.00014712       0.00039673 </v>
   <v>      -0.00000070       0.00001374       0.00003449 </v>
   <v>      -0.00003215       0.00007977       0.00013016 </v>
   <v>       0.00001747       0.00000914       0.00006039 </v>
   <v>       0.00027830       0.00078914       0.00019585 </v>
   <v>       0.00002548       0.00000487       0.00001481 </v>
   <v>       0.00004887      -0.00006509      -0.00023226 </v>
   <v>       0.00003315       0.00001198       0.00002186 </v>
   <v>      -0.00088653       0.00019689       0.00217641 </v>
   <v>      -0.00009093       0.00002577      -0.00016514 </v>
   <v>      -0.00006971      -0.00003147      -0.00006897 </v>
   <v>       0.00003892      -0.00000420      -0.00006822 </v>
   <v>      -0.00036375      -0.00028684       0.00072388 </v>
   <v>       0.00056447       0.00015580       0.00022748 </v>
   <v>      -0.00004653       0.00000281       0.00001566 </v>
   <v>       0.00002017      -0.00000716      -0.00000606 </v>
   <v>       0.00033503       0.00026642       0.00071744 </v>
   <v>      -0.00070622      -0.00026125       0.00021025 </v>
   <v>      -0.00001734      -0.00002571      -0.00001320 </v>
   <v>      -0.00001775      -0.00002307      -0.00001617 </v>
   <v>       0.00295896      -0.00584077      -0.00805320 </v>
   <v>      -0.00021077       0.00008773      -0.00005143 </v>
   <v>      -0.00007285       0.00005738      -0.00016247 </v>
   <v>      -0.00004971       0.00000783       0.00002651 </v>
   <v>      -0.00369744       0.00300032      -0.00599527 </v>
   <v>       0.00006016      -0.00006529      -0.00000987 </v>
   <v>      -0.00007958       0.00023600       0.00028043 </v>
   <v>       0.00001608       0.00000764       0.00004602 </v>
   <v>      -0.00001203       0.00001165       0.00048461 </v>
   <v>      -0.00000093       0.00001771       0.00035037 </v>
   <v>      -0.00001323      -0.00004525       0.00021933 </v>
   <v>      -0.00001627       0.00001831       0.00007421 </v>
  </varray>
  <varray name="stress" >
   <v>      -0.16000526       0.00017423       0.00094296 </v>
   <v>       0.00017439      -0.16111227       0.00176878 </v>
   <v>       0.00094291       0.00176868      -0.15593149 </v>
  </varray>
  <energy>
   <i name="e_fr_energy">   -505.12822214 </i>
   <i name="e_wo_entrp">   -505.12060629 </i>
   <i name="e_0_energy">     -0.01523169 </i>
  </energy>
  <time name="totalsc">17448.2917492.56</time>
  <eigenvalues>
   <array>
    <dimension dim="1">band</dimension>
    <dimension dim="2">kpoint</dimension>
    <dimension dim="3">spin</dimension>
    <field>eigene</field>
    <field>occ</field>
    <set>
     <set comment="spin 1">
      <set comment="kpoint 1">
       <r>   -7.4639    1.0000 </r>
       <r>   -7.2297    1.0000 </r>
       <r>   -7.2293    1.0000 </r>
       <r>   -7.2157    1.0000 </r>
       <r>   -7.2156    1.0000 </r>
       <r>   -7.1644    1.0000 </r>
       <r>   -7.1643    1.0000 </r>
       <r>   -7.0699    1.0000 </r>
       <r>   -7.0696    1.0000 </r>
       <r>   -7.0695    1.0000 </r>
       <r>   -7.0690    1.0000 </r>
       <r>   -7.0095    1.0000 </r>
       <r>   -7.0091    1.0000 </r>
       <r>   -7.0089    1.0000 </r>
       <r>   -7.0088    1.0000 </r>
       <r>   -6.9939    1.0000 </r>
       <r>   -6.9939    1.0000 </r>
       <r>   -6.9938    1.0000 </r>
       <r>   -6.9937    1.0000 </r>
       <r>   -6.9476    1.0000 </r>
       <r>   -6.9353    1.0000 </r>
       <r>   -6.9349    1.0000 </r>
       <r>   -6.9199    1.0000 </r>
       <r>   -6.9192    1.0000 </r>
       <r>   -6.9191    1.0000 </r>
       <r>   -6.9191    1.0000 </r>
       <r>   -6.9191    1.0000 </r>
       <r>   -6.9190    1.0000 </r>
       <r>   -6.9187    1.0000 </r>
       <r>   -6.9184    1.0000 </r>
       <r>   -6.8370    1.0000 </r>
       <r>   -6.8367    1.0000 </r>
       <r>   -6.8365    1.0000 </r>
       <r>   -6.8363    1.0000 </r>
       <r>   -6.8238    1.0000 </r>
       <r>   -6.8180    1.0000 </r>
       <r>   -6.8180    1.0000 </r>
       <r>   -6.7729    1.0000 </r>
       <r>   -6.7724    1.0000 </r>
       <r>   -6.7673    1.0000 </r>
       <r>   -6.7669    1.0000 </r>
       <r>   -6.7669    1.0000 </r>
       <r>   -6.7664    1.0000 </r>
       <r>   -6.7547    1.0000 </r>
       <r>   -6.7546    1.0000 </r>
       <r>   -6.7401    1.0000 </r>
       <r>   -6.7398    1.0000 </r>
       <r>   -6.6844    1.0000 </r>
       <r>   -0.3461    1.0000 </r>
       <r>    0.0936    1.0000 </r>
       <r>    0.0940    1.0000 </r>
       <r>    0.0940    1.0000 </r>
       <r>    0.0942    1.0000 </r>
       <r>    0.0943    1.0000 </r>
       <r>    0.0944    1.0000 </r>
       <r>    0.0945    1.0000 </r>
       <r>    0.0948    1.0000 </r>
       <r>    0.1075    1.0000 </r>
       <r>    0.1077    1.0000 </r>
       <r>    0.1080    1.0000 </r>
       <r>    0.1082    1.0000 </r>
       <r>    0.1520    1.0000 </r>
       <r>    0.1522    1.0000 </r>
       <r>    0.1523    1.0000 </r>
       <r>    0.1523    1.0000 </r>
       <r>    0.1580    1.0000 </r>
       <r>    0.1581    1.0000 </r>
       <r>    0.1596    1.0000 </r>
       <r>    0.1597    1.0000 </r>
       <r>    0.2007    1.0000 </r>
       <r>    0.2008    1.0000 </r>
       <r>    0.2010    1.0000 </r>
       <r>    0.2012    1.0000 </r>
       <r>    0.2366    1.0000 </r>
       <r>    0.2367    1.0000 </r>
       <r>    0.2565    1.0000 </r>
       <r>    0.2571    1.0000 </r>
       <r>    0.2821    1.0000 </r>
       <r>    0.3006    1.0000 </r>
       <r>    0.3009    1.0000 </r>
       <r>    0.3229    1.0000 </r>
       <r>    0.4472    1.0000 </r>
       <r>    0.4472    1.0000 </r>
       <r>    0.4507    1.0000 </r>
       <r>    0.4510    1.0000 </r>
       <r>    0.4572    1.0000 </r>
       <r>    0.4575    1.0000 </r>
       <r>    0.4653    1.0000 </r>
       <r>    0.4655    1.0000 </r>
       <r>    0.4658    1.0000 </r>
       <r>    0.4660    1.0000 </r>
       <r>    0.4698    1.0000 </r>
       <r>    0.4700    1.0000 </r>
       <r>    0.4702    1.0000 </r>
       <r>    0.4703    1.0000 </r>
       <r>    0.5112    1.0000 </r>
       <r>    0.5114    1.0000 </r>
       <r>    0.5259    1.0000 </r>
       <r>    0.5263    1.0000 </r>
       <r>    0.5263    1.0000 </r>
       <r>    0.5268    1.0000 </r>
       <r>    0.5972    1.0000 </r>
       <r>    0.6017    1.0000 </r>
       <r>    0.6547    1.0000 </r>
       <r>    0.6549    1.0000 </r>
       <r>    0.6552    1.0000 </r>
       <r>    0.6553    1.0000 </r>
       <r>    0.6615    1.0000 </r>
       <r>    0.6618    1.0000 </r>
       <r>    0.6877    1.0000 </r>
       <r>    0.6878    1.0000 </r>
       <r>    0.7014    1.0000 </r>
       <r>    0.7018    1.0000 </r>
       <r>    0.7020    1.0000 </r>
       <r>    0.7021    1.0000 </r>
       <r>    0.7207    1.0000 </r>
       <r>    0.7208    1.0000 </r>
       <r>    0.7409    1.0000 </r>
       <r>    0.7412    1.0000 </r>
       <r>    0.7484    1.0000 </r>
       <r>    0.8022    1.0000 </r>
       <r>    0.8140    1.0000 </r>
       <r>    0.8143    1.0000 </r>
       <r>    0.8144    1.0000 </r>
       <r>    0.8148    1.0000 </r>
       <r>    0.8302    1.0000 </r>
       <r>    0.8303    1.0000 </r>
       <r>    0.8305    1.0000 </r>
       <r>    0.8306    1.0000 </r>
       <r>    0.8512    1.0000 </r>
       <r>    0.8519    1.0000 </r>
       <r>    0.8520    1.0000 </r>
       <r>    0.8520    1.0000 </r>
       <r>    0.8521    1.0000 </r>
       <r>    0.8521    1.0000 </r>
       <r>    0.8523    1.0000 </r>
       <r>    0.8528    1.0000 </r>
       <r>    0.8949    1.0000 </r>
       <r>    0.8976    1.0000 </r>
       <r>    0.8978    1.0000 </r>
       <r>    0.8991    1.0000 </r>
       <r>    0.8993    1.0000 </r>
       <r>    0.8995    1.0000 </r>
       <r>    0.8997    1.0000 </r>
       <r>    0.9203    1.0000 </r>
       <r>    0.9458    1.0000 </r>
       <r>    0.9459    1.0000 </r>
       <r>    1.0706    1.0000 </r>
       <r>    1.0709    1.0000 </r>
       <r>    1.0710    1.0000 </r>
       <r>    1.0711    1.0000 </r>
       <r>    1.0843    1.0000 </r>
       <r>    1.0844    1.0000 </r>
       <r>    1.0848    1.0000 </r>
       <r>    1.0849    1.0000 </r>
       <r>    1.0850    1.0000 </r>
       <r>    1.0854    1.0000 </r>
       <r>    1.1007    1.0000 </r>
       <r>    1.1010    1.0000 </r>
       <r>    1.1456    1.0000 </r>
       <r>    1.1458    1.0000 </r>
       <r>    1.1459    1.0000 </r>
       <r>    1.1460    1.0000 </r>
       <r>    1.1616    1.0000 </r>
       <r>    1.1619    1.0000 </r>
       <r>    1.1619    1.0000 </r>
       <r>    1.1620    1.0000 </r>
       <r>    1.1754    1.0000 </r>
       <r>    1.1759    1.0000 </r>
       <r>    1.1995    1.0000 </r>
       <r>    1.2241    1.0000 </r>
       <r>    1.2244    1.0000 </r>
       <r>    1.2293    1.0000 </r>
       <r>    1.2297    1.0000 </r>
       <r>    1.2298    1.0000 </r>
       <r>    1.2299    1.0000 </r>
       <r>    1.2300    1.0000 </r>
       <r>    1.2301    1.0000 </r>
       <r>    1.2301    1.0000 </r>
       <r>    1.2303    1.0000 </r>
       <r>    1.2368    1.0000 </r>
       <r>    1.2371    1.0000 </r>
       <r>    1.3413    1.0000 </r>
       <r>    1.3415    1.0000 </r>
       <r>    1.3416    1.0000 </r>
       <r>    1.3417    1.0000 </r>
       <r>    1.3653    1.0000 </r>
       <r>    1.3662    1.0000 </r>
       <r>    1.3664    1.0000 </r>
       <r>    1.3672    1.0000 </r>
       <r>    1.3673    1.0000 </r>
       <r>    1.3733    1.0000 </r>
       <r>    1.3735    1.0000 </r>
       <r>    1.3735    1.0000 </r>
       <r>    1.3735    1.0000 </r>
       <r>    1.3778    1.0000 </r>
       <r>    1.3781    1.0000 </r>
       <r>    1.3950    1.0000 </r>
       <r>    1.3953    1.0000 </r>
       <r>    1.3954    1.0000 </r>
       <r>    1.3956    1.0000 </r>
       <r>    1.3961    1.0000 </r>
       <r>    1.4059    1.0000 </r>
       <r>    1.4203    1.0000 </r>
       <r>    1.4204    1.0000 </r>
       <r>    1.4365    1.0000 </r>
       <r>    1.4365    1.0000 </r>
       <r>    1.4408    1.0000 </r>
       <r>    1.4462    1.0000 </r>
       <r>    1.4514    1.0000 </r>
       <r>    1.4515    1.0000 </r>
       <r>    1.4569    1.0000 </r>
       <r>    1.4569    1.0000 </r>
       <r>    1.4570    1.0000 </r>
       <r>    1.4571    1.0000 </r>
       <r>    1.4913    1.0000 </r>
       <r>    1.4913    1.0000 </r>
       <r>    1.5272    1.0000 </r>
[...]
       <r>    -1.7756     0.0000    96.0000 </r>
       <r>    -1.7039     0.0000    96.0000 </r>
       <r>    -1.6323     0.0000    96.0000 </r>
       <r>    -1.5606     0.0000    96.0000 </r>
       <r>    -1.4889     0.0000    96.0000 </r>
       <r>    -1.4172     0.0000    96.0000 </r>
       <r>    -1.3456     0.0000    96.0000 </r>
       <r>    -1.2739     0.0000    96.0000 </r>
       <r>    -1.2022     0.0000    96.0000 </r>
       <r>    -1.1306     0.0000    96.0000 </r>
       <r>    -1.0589     0.0000    96.0000 </r>
       <r>    -0.9872     0.0000    96.0000 </r>
       <r>    -0.9155     0.0000    96.0000 </r>
       <r>    -0.8439     0.0000    96.0000 </r>
       <r>    -0.7722     0.0000    96.0000 </r>
       <r>    -0.7005     0.0000    96.0000 </r>
       <r>    -0.6288     0.0000    96.0000 </r>
       <r>    -0.5572     0.0000    96.0000 </r>
       <r>    -0.4855     0.0001    96.0000 </r>
       <r>    -0.4138     0.0965    96.0069 </r>
       <r>    -0.3421     1.8028    96.1361 </r>
       <r>    -0.2705     1.8564    96.2692 </r>
       <r>    -0.1988     8.5655    96.8831 </r>
       <r>    -0.1271    15.3709    97.9848 </r>
       <r>    -0.0555    24.5687    99.7457 </r>
       <r>     0.0162    51.8627   103.4629 </r>
       <r>     0.0879   104.1179   110.9254 </r>
       <r>     0.1596   189.3012   124.4932 </r>
       <r>     0.2312   206.9922   139.3290 </r>
       <r>     0.3029   273.9806   158.9661 </r>
       <r>     0.3746   191.6143   172.6998 </r>
       <r>     0.4463   124.3278   181.6107 </r>
       <r>     0.5179   141.0428   191.7198 </r>
       <r>     0.5896   123.8053   200.5933 </r>
       <r>     0.6613   168.5223   212.6718 </r>
       <r>     0.7330   245.7287   230.2840 </r>
       <r>     0.8046   229.1886   246.7107 </r>
       <r>     0.8763   293.2198   267.7268 </r>
       <r>     0.9480   282.6190   287.9830 </r>
       <r>     1.0196   144.7003   298.3542 </r>
       <r>     1.0913   185.8199   311.6725 </r>
       <r>     1.1630   227.2447   327.9599 </r>
       <r>     1.2347   230.4613   344.4778 </r>
       <r>     1.3063   298.3583   365.8622 </r>
       <r>     1.3780   308.4679   387.9711 </r>
       <r>     1.4497   391.9937   416.0666 </r>
       <r>     1.5214   354.7367   441.4918 </r>
       <r>     1.5930   373.2927   468.2469 </r>
       <r>     1.6647   365.2457   494.4253 </r>
       <r>     1.7364   392.2019   522.5357 </r>
       <r>     1.8081   371.4673   549.1600 </r>
       <r>     1.8797   358.4608   574.8521 </r>
       <r>     1.9514   389.9016   602.7976 </r>
       <r>     2.0231   414.5121   632.5071 </r>
       <r>     2.0947   377.1634   659.5396 </r>
       <r>     2.1664   361.6592   685.4609 </r>
       <r>     2.2381   375.3677   712.3648 </r>
       <r>     2.3098   396.3924   740.7756 </r>
       <r>     2.3814   336.9036   764.9226 </r>
       <r>     2.4531   295.8720   786.1287 </r>
       <r>     2.5248   340.2146   810.5130 </r>
       <r>     2.5965   356.6438   836.0749 </r>
       <r>     2.6681   409.0649   865.3939 </r>
       <r>     2.7398   372.5453   892.0955 </r>
       <r>     2.8115   381.7088   919.4538 </r>
       <r>     2.8832   433.0860   950.4945 </r>
       <r>     2.9548   501.4383   986.4343 </r>
       <r>     3.0265   494.0306  1021.8431 </r>
       <r>     3.0982   363.9351  1047.9276 </r>
       <r>     3.1698   231.1546  1064.4952 </r>
       <r>     3.2415   204.6639  1079.1641 </r>
       <r>     3.3132   169.6200  1091.3214 </r>
       <r>     3.3849   136.3545  1101.0943 </r>
       <r>     3.4565   120.7226  1109.7469 </r>
       <r>     3.5282   158.6645  1121.1189 </r>
       <r>     3.5999   161.3502  1132.6834 </r>
       <r>     3.6716    99.7273  1139.8312 </r>
       <r>     3.7432    96.6823  1146.7608 </r>
       <r>     3.8149    63.7294  1151.3285 </r>
       <r>     3.8866    73.3911  1156.5887 </r>
       <r>     3.9583    72.4264  1161.7797 </r>
       <r>     4.0299    66.4850  1166.5449 </r>
       <r>     4.1016    91.9576  1173.1358 </r>
       <r>     4.1733   105.6762  1180.7100 </r>
       <r>     4.2449   112.2990  1188.7588 </r>
       <r>     4.3166    74.2998  1194.0841 </r>
       <r>     4.3883    73.1310  1199.3257 </r>
       <r>     4.4600    65.5854  1204.0264 </r>
       <r>     4.5316    93.0540  1210.6959 </r>
       <r>     4.6033    93.1692  1217.3736 </r>
       <r>     4.6750   103.0532  1224.7598 </r>
       <r>     4.7467   141.9273  1234.9322 </r>
       <r>     4.8183   135.5337  1244.6464 </r>
       <r>     4.8900    70.1276  1249.6726 </r>
       <r>     4.9617    53.8698  1253.5337 </r>
       <r>     5.0334    55.2451  1257.4933 </r>
       <r>     5.1050    89.6803  1263.9209 </r>
       <r>     5.1767   145.4682  1274.3471 </r>
       <r>     5.2484   105.3942  1281.9011 </r>
       <r>     5.3200    62.1389  1286.3548 </r>
       <r>     5.3917    60.7696  1290.7103 </r>
       <r>     5.4634    68.3878  1295.6119 </r>
       <r>     5.5351    73.1901  1300.8577 </r>
       <r>     5.6067    76.8443  1306.3654 </r>
       <r>     5.6784   113.3689  1314.4909 </r>
       <r>     5.7501   129.7654  1323.7916 </r>
       <r>     5.8218    71.3053  1328.9023 </r>
       <r>     5.8934    64.6373  1333.5351 </r>
       <r>     5.9651    57.2016  1337.6349 </r>
       <r>     6.0368    29.6294  1339.7586 </r>
       <r>     6.1085    18.6762  1341.0972 </r>
       <r>     6.1801    21.6065  1342.6458 </r>
       <r>     6.2518    16.5900  1343.8348 </r>
       <r>     6.3235     8.4744  1344.4422 </r>
       <r>     6.3951     0.8030  1344.4998 </r>
       <r>     6.4668     0.1436  1344.5100 </r>
       <r>     6.5385     1.9889  1344.6526 </r>
       <r>     6.6102     1.7376  1344.7771 </r>
       <r>     6.6818     5.9036  1345.2003 </r>
       <r>     6.7535    23.7754  1346.9043 </r>
       <r>     6.8252    25.4461  1348.7281 </r>
       <r>     6.8969    10.6157  1349.4890 </r>
       <r>     6.9685     6.3505  1349.9442 </r>
       <r>     7.0402     8.9134  1350.5830 </r>
       <r>     7.1119     4.8145  1350.9281 </r>
       <r>     7.1836    22.4019  1352.5337 </r>
       <r>     7.2552    24.0904  1354.2603 </r>
       <r>     7.3269    27.7189  1356.2471 </r>
       <r>     7.3986    32.2006  1358.5550 </r>
       <r>     7.4702    30.0169  1360.7064 </r>
       <r>     7.5419    63.6049  1365.2652 </r>
       <r>     7.6136    68.7938  1370.1959 </r>
       <r>     7.6853    26.4019  1372.0882 </r>
       <r>     7.7569    56.8045  1376.1595 </r>
       <r>     7.8286    69.7566  1381.1592 </r>
       <r>     7.9003    73.0849  1386.3975 </r>
       <r>     7.9720    76.1688  1391.8567 </r>
       <r>     8.0436    63.8291  1396.4316 </r>
       <r>     8.1153    33.6274  1398.8418 </r>
       <r>     8.1870    17.8905  1400.1240 </r>
       <r>     8.2587     7.8896  1400.6895 </r>
       <r>     8.3303    11.8143  1401.5363 </r>
       <r>     8.4020    52.0322  1405.2656 </r>
       <r>     8.4737    32.3292  1407.5828 </r>
       <r>     8.5453    34.5625  1410.0600 </r>
       <r>     8.6170    98.2472  1417.1017 </r>
       <r>     8.6887   101.7842  1424.3969 </r>
       <r>     8.7604    57.8160  1428.5407 </r>
       <r>     8.8320    50.2495  1432.1423 </r>
       <r>     8.9037    33.5763  1434.5488 </r>
       <r>     8.9754    45.8963  1437.8384 </r>
       <r>     9.0471    29.2418  1439.9342 </r>
       <r>     9.1187    21.7769  1441.4951 </r>
       <r>     9.1904     9.9672  1442.2094 </r>
       <r>     9.2621    18.2060  1443.5143 </r>
       <r>     9.3338    55.0348  1447.4588 </r>
       <r>     9.4054    49.0916  1450.9774 </r>
       <r>     9.4771    54.0704  1454.8528 </r>
       <r>     9.5488    37.7739  1457.5602 </r>
       <r>     9.6204    51.5102  1461.2521 </r>
       <r>     9.6921    50.2597  1464.8544 </r>
       <r>     9.7638    47.0970  1468.2300 </r>
       <r>     9.8355    54.1925  1472.1141 </r>
       <r>     9.9071    75.5277  1477.5274 </r>
       <r>     9.9788    57.2699  1481.6322 </r>
       <r>    10.0505   111.2240  1489.6040 </r>
       <r>    10.1222   115.8937  1497.9105 </r>
       <r>    10.1938    39.2725  1500.7252 </r>
       <r>    10.2655    29.8709  1502.8662 </r>
       <r>    10.3372    48.9008  1506.3711 </r>
       <r>    10.4089    58.8897  1510.5919 </r>
       <r>    10.4805    90.7428  1517.0957 </r>
       <r>    10.5522   111.8918  1525.1154 </r>
       <r>    10.6239   110.5119  1533.0361 </r>
       <r>    10.6955    92.4637  1539.6633 </r>
       <r>    10.7672    79.8354  1545.3854 </r>
       <r>    10.8389   108.0872  1553.1324 </r>
       <r>    10.9106    87.2855  1559.3884 </r>
       <r>    10.9822    64.0142  1563.9765 </r>
       <r>    11.0539    33.5226  1566.3792 </r>
       <r>    11.1256    57.6947  1570.5144 </r>
       <r>    11.1973    49.9368  1574.0935 </r>
       <r>    11.2689    46.6683  1577.4384 </r>
       <r>    11.3406    83.4901  1583.4224 </r>
       <r>    11.4123    51.5656  1587.1183 </r>
       <r>    11.4840    57.0386  1591.2064 </r>
       <r>    11.5556    88.9348  1597.5807 </r>
       <r>    11.6273    66.4891  1602.3462 </r>
       <r>    11.6990    44.0082  1605.5004 </r>
       <r>    11.7706    11.0573  1606.2929 </r>
       <r>    11.8423    15.3329  1607.3919 </r>
       <r>    11.9140    36.8977  1610.0364 </r>
       <r>    11.9857    19.5643  1611.4387 </r>
       <r>    12.0573     2.8200  1611.6408 </r>
       <r>    12.1290     4.4752  1611.9616 </r>
       <r>    12.2007     0.5343  1611.9998 </r>
       <r>    12.2724     0.0021  1612.0000 </r>
       <r>    12.3440     0.0000  1612.0000 </r>
       <r>    12.4157     0.0000  1612.0000 </r>
       <r>    12.4874     0.0000  1612.0000 </r>
       <r>    12.5591     0.0000  1612.0000 </r>
       <r>    12.6307     0.0000  1612.0000 </r>
       <r>    12.7024     0.0000  1612.0000 </r>
       <r>    12.7741     0.0000  1612.0000 </r>
       <r>    12.8457     0.0000  1612.0000 </r>
       <r>    12.9174     0.0000  1612.0000 </r>
       <r>    12.9891     0.0000  1612.0000 </r>
       <r>    13.0608     0.0000  1612.0000 </r>
      </set>
     </set>
    </array>
   </total>
  </dos>
 </calculation>
 <structure name="finalpos" >
  <crystal>
   <varray name="basis" >
    <v>      14.01039598       0.00139138       0.00000000 </v>
    <v>      -0.00150196      13.76691092       0.00000000 </v>
    <v>       0.00000000       0.00000000      14.55019386 </v>
   </varray>
   <i name="volume">   2806.43958022 </i>
   <varray name="rec_basis" >
    <v>       0.07137557       0.00000779       0.00000000 </v>
    <v>      -0.00000721       0.07263794       0.00000000 </v>
    <v>       0.00000000       0.00000000       0.06872761 </v>
   </varray>
  </crystal>
  <varray name="positions" >
   <v>       0.42987898       0.17167077       0.33247735 </v>
   <v>       0.92987898       0.17167077       0.33247735 </v>
   <v>       0.42987898       0.67167077       0.33247735 </v>
   <v>       0.92987898       0.67167077       0.33247735 </v>
   <v>       0.42987898       0.17167077       0.66581068 </v>
   <v>       0.92987898       0.17167077       0.66581068 </v>
   <v>       0.42987898       0.67167077       0.66581068 </v>
   <v>       0.92987898       0.67167077       0.66581068 </v>
   <v>       0.42987898       0.17167077       0.99914401 </v>
   <v>       0.92987898       0.17167077       0.99914401 </v>
   <v>       0.42987898       0.67167077       0.99914401 </v>
   <v>       0.92987898       0.67167077       0.99914401 </v>
   <v>       0.07012102       0.32832923       0.33247735 </v>
   <v>       0.57012102       0.32832923       0.33247735 </v>
   <v>       0.07012102       0.82832923       0.33247735 </v>
   <v>       0.57012102       0.82832923       0.33247735 </v>
   <v>       0.07012102       0.32832923       0.66581068 </v>
   <v>       0.57012102       0.32832923       0.66581068 </v>
   <v>       0.07012102       0.82832923       0.66581068 </v>
   <v>       0.57012102       0.82832923       0.66581068 </v>
   <v>       0.07012102       0.32832923       0.99914401 </v>
   <v>       0.57012102       0.32832923       0.99914401 </v>
   <v>       0.07012102       0.82832923       0.99914401 </v>
   <v>       0.57012102       0.82832923       0.99914401 </v>
   <v>       0.32012053       0.42167367       0.05641075 </v>
   <v>       0.82012053       0.42167367       0.05641075 </v>
   <v>       0.32012053       0.92167367       0.05641075 </v>
   <v>       0.82012053       0.92167367       0.05641075 </v>
   <v>       0.32012053       0.42167367       0.38974408 </v>
   <v>       0.82012053       0.42167367       0.38974408 </v>
   <v>       0.32012053       0.92167367       0.38974408 </v>
   <v>       0.82012053       0.92167367       0.38974408 </v>
   <v>       0.32012053       0.42167367       0.72307741 </v>
   <v>       0.82012053       0.42167367       0.72307741 </v>
   <v>       0.32012053       0.92167367       0.72307741 </v>
   <v>       0.82012053       0.92167367       0.72307741 </v>
   <v>       0.17987947       0.07832633       0.05641075 </v>
   <v>       0.67987947       0.07832633       0.05641075 </v>
   <v>       0.17987947       0.57832633       0.05641075 </v>
   <v>       0.67987947       0.57832633       0.05641075 </v>
   <v>       0.17987947       0.07832633       0.38974408 </v>
   <v>       0.67987947       0.07832633       0.38974408 </v>
   <v>       0.17987947       0.57832633       0.38974408 </v>
   <v>       0.67987947       0.57832633       0.38974408 </v>
   <v>       0.17987947       0.07832633       0.72307741 </v>
   <v>       0.67987947       0.07832633       0.72307741 </v>
   <v>       0.17987947       0.57832633       0.72307741 </v>
   <v>       0.67987947       0.57832633       0.72307741 </v>
   <v>       0.17987776       0.32832369       0.16512128 </v>
   <v>       0.67987776       0.32832369       0.16580856 </v>
   <v>       0.17987776       0.82832369       0.16580856 </v>
   <v>       0.67987776       0.82832369       0.16580856 </v>
   <v>       0.17987776       0.32832369       0.49914189 </v>
   <v>       0.67987776       0.32832369       0.49914189 </v>
   <v>       0.17987776       0.82832369       0.49914189 </v>
   <v>       0.67987776       0.82832369       0.49914189 </v>
   <v>       0.17987776       0.32832369       0.83247522 </v>
   <v>       0.67987776       0.32832369       0.83247522 </v>
   <v>       0.17987776       0.82832369       0.83247522 </v>
   <v>       0.67987776       0.82832369       0.83247522 </v>
   <v>       0.32012224       0.17167631       0.16580856 </v>
   <v>       0.82012224       0.17167631       0.16580856 </v>
   <v>       0.32012224       0.67167631       0.16580856 </v>
   <v>       0.82012224       0.67167631       0.16580856 </v>
   <v>       0.32012224       0.17167631       0.49914189 </v>
   <v>       0.82012224       0.17167631       0.49914189 </v>
   <v>       0.32012224       0.67167631       0.49914189 </v>
   <v>       0.82012224       0.67167631       0.49914189 </v>
   <v>       0.32012224       0.17167631       0.83247522 </v>
   <v>       0.82012224       0.17167631       0.83247522 </v>
   <v>       0.32012224       0.67167631       0.83247522 </v>
   <v>       0.82012224       0.67167631       0.83247522 </v>
   <v>       0.42987656       0.42167494       0.22308000 </v>
   <v>       0.92987656       0.42167494       0.22308000 </v>
   <v>       0.42987656       0.92167494       0.22308000 </v>
   <v>       0.92987656       0.92167494       0.22308000 </v>
   <v>       0.42987656       0.42167494       0.55641333 </v>
   <v>       0.92987656       0.42167494       0.55641333 </v>
   <v>       0.42987656       0.92167494       0.55641333 </v>
   <v>       0.92987656       0.92167494       0.55641333 </v>
   <v>       0.42987656       0.42167494       0.88974666 </v>
   <v>       0.92987656       0.42167494       0.88974666 </v>
   <v>       0.42987656       0.92167494       0.88974666 </v>
   <v>       0.92987656       0.92167494       0.88974666 </v>
   <v>       0.07012344       0.07832506       0.22308000 </v>
   <v>       0.57012344       0.07832506       0.22308000 </v>
   <v>       0.07012344       0.57832506       0.22308000 </v>
   <v>       0.57012344       0.57832506       0.22308000 </v>
   <v>       0.07012344       0.07832506       0.55641333 </v>
   <v>       0.57012344       0.07832506       0.55641333 </v>
   <v>       0.07012344       0.57832506       0.55641333 </v>
   <v>       0.57012344       0.57832506       0.55641333 </v>
   <v>       0.07012344       0.07832506       0.88974666 </v>
   <v>       0.57012344       0.07832506       0.88974666 </v>
   <v>       0.07012344       0.57832506       0.88974666 </v>
   <v>       0.57012344       0.57832506       0.88974666 </v>
   <v>       0.00000000       0.00000000       0.05479365 </v>
   <v>       0.50000000       0.00000000       0.05479365 </v>
   <v>       0.00000000       0.50000000       0.05479365 </v>
   <v>       0.50000000       0.50000000       0.05479365 </v>
   <v>       0.00000000       0.00000000       0.38812698 </v>
   <v>       0.50000000       0.00000000       0.38812698 </v>
   <v>       0.00000000       0.50000000       0.38812698 </v>
   <v>       0.50000000       0.50000000       0.38812698 </v>
   <v>       0.00000000       0.00000000       0.72146032 </v>
   <v>       0.50000000       0.00000000       0.72146032 </v>
   <v>       0.00000000       0.50000000       0.72146032 </v>
   <v>       0.50000000       0.50000000       0.72146032 </v>
   <v>       0.25000000       0.00000000       0.22145206 </v>
   <v>       0.75000000       0.00000000       0.22145206 </v>
   <v>       0.25000000       0.50000000       0.22145206 </v>
   <v>       0.75000000       0.50000000       0.22145206 </v>
   <v>       0.25000000       0.00000000       0.55478539 </v>
   <v>       0.75000000       0.00000000       0.55478539 </v>
   <v>       0.25000000       0.50000000       0.55478539 </v>
   <v>       0.75000000       0.50000000       0.55478539 </v>
   <v>       0.25000000       0.00000000       0.88811873 </v>
   <v>       0.75000000       0.00000000       0.88811873 </v>
   <v>       0.25000000       0.50000000       0.88811873 </v>
   <v>       0.75000000       0.50000000       0.88811873 </v>
   <v>       0.00000000       0.25000000       0.16743769 </v>
   <v>       0.50000000       0.25000000       0.16743769 </v>
   <v>       0.00000000       0.75000000       0.16743769 </v>
   <v>       0.50000000       0.75000000       0.16743769 </v>
   <v>       0.00000000       0.25000000       0.50077102 </v>
   <v>       0.50000000       0.25000000       0.50077102 </v>
   <v>       0.00000000       0.75000000       0.50077102 </v>
   <v>       0.50000000       0.75000000       0.50077102 </v>
   <v>       0.00000000       0.25000000       0.83410435 </v>
   <v>       0.50000000       0.25000000       0.83410435 </v>
   <v>       0.00000000       0.75000000       0.83410435 </v>
   <v>       0.50000000       0.75000000       0.83410435 </v>
   <v>       0.25000000       0.25000000       0.00076332 </v>
   <v>       0.75000000       0.25000000       0.00076332 </v>
   <v>       0.25000000       0.75000000       0.00076332 </v>
   <v>       0.75000000       0.75000000       0.00076332 </v>
   <v>       0.25000000       0.25000000       0.33409665 </v>
   <v>       0.75000000       0.25000000       0.33409665 </v>
   <v>       0.25000000       0.75000000       0.33409665 </v>
   <v>       0.75000000       0.75000000       0.33409665 </v>
   <v>       0.25000000       0.25000000       0.66742999 </v>
   <v>       0.75000000       0.25000000       0.66742999 </v>
   <v>       0.25000000       0.75000000       0.66742999 </v>
   <v>       0.75000000       0.75000000       0.66742999 </v>
  </varray>
 </structure>
</modeling>
