 192 192   0   0
  0.1931523E+02  0.1767436E-08  0.1377516E-08  0.1580299E-08  0.5000000E-15
  1.000000000000000E-004
  CAR 
 unknown system                          
     13.15535376     -8.37048458  301      6.46164616      1.00000000
     -8.370  0.0000E+00  0.0000E+00
     -8.299  0.0000E+00  0.0000E+00
     -8.227  0.0000E+00  0.0000E+00
     -8.155  0.0000E+00  0.0000E+00
     -8.083  0.0000E+00  0.0000E+00
     -8.012  0.0000E+00  0.0000E+00
     -7.940  0.0000E+00  0.0000E+00
     -7.868  0.0000E+00  0.0000E+00
     -7.796  0.0000E+00  0.0000E+00
     -7.725  0.0000E+00  0.0000E+00
     -7.653  0.2760E-12  0.1980E-13
     -7.581  0.1529E-06  0.1097E-07
     -7.509  0.1569E-02  0.1126E-03
     -7.438  0.3671E+00  0.2645E-01
     -7.366  0.5491E+01  0.4205E+00
     -7.294  0.2299E+02  0.2070E+01
     -7.222  0.4301E+02  0.5156E+01
     -7.151  0.5040E+02  0.8772E+01
     -7.079  0.7152E+02  0.1390E+02
     -7.007  0.1042E+03  0.2138E+02
     -6.935  0.1347E+03  0.3104E+02
     -6.864  0.2017E+03  0.4552E+02
     -6.792  0.2948E+03  0.6667E+02
     -6.720  0.3592E+03  0.9245E+02
     -6.648  0.2860E+03  0.1130E+03
     -6.577  0.1778E+03  0.1257E+03
     -6.505  0.3118E+02  0.1280E+03
     -6.433  0.4962E+00  0.1280E+03
     -6.361  0.3019E-03  0.1280E+03
     -6.290  0.4281E-08  0.1280E+03
     -6.218  0.3868E-15  0.1280E+03
     -6.146  0.0000E+00  0.1280E+03
     -6.074  0.0000E+00  0.1280E+03
     -6.003  0.0000E+00  0.1280E+03
     -5.931  0.0000E+00  0.1280E+03
     -5.859  0.0000E+00  0.1280E+03
     -5.787  0.0000E+00  0.1280E+03
     -5.716  0.0000E+00  0.1280E+03
     -5.644  0.0000E+00  0.1280E+03
     -5.572  0.0000E+00  0.1280E+03
     -5.500  0.0000E+00  0.1280E+03
     -5.429  0.0000E+00  0.1280E+03
     -5.357  0.0000E+00  0.1280E+03
     -5.285  0.0000E+00  0.1280E+03
     -5.213  0.0000E+00  0.1280E+03
     -5.142  0.0000E+00  0.1280E+03
     -5.070  0.0000E+00  0.1280E+03
     -4.998  0.0000E+00  0.1280E+03
     -4.926  0.0000E+00  0.1280E+03
     -4.855  0.0000E+00  0.1280E+03
     -4.783  0.0000E+00  0.1280E+03
     -4.711  0.0000E+00  0.1280E+03
     -4.639  0.0000E+00  0.1280E+03
     -4.568  0.0000E+00  0.1280E+03
     -4.496  0.0000E+00  0.1280E+03
     -4.424  0.0000E+00  0.1280E+03
     -4.352  0.0000E+00  0.1280E+03
     -4.281  0.0000E+00  0.1280E+03
     -4.209  0.0000E+00  0.1280E+03
     -4.137  0.0000E+00  0.1280E+03
     -4.065  0.0000E+00  0.1280E+03
     -3.994  0.0000E+00  0.1280E+03
     -3.922  0.0000E+00  0.1280E+03
     -3.850  0.0000E+00  0.1280E+03
     -3.778  0.0000E+00  0.1280E+03
     -3.707  0.0000E+00  0.1280E+03
     -3.635  0.0000E+00  0.1280E+03
     -3.563  0.0000E+00  0.1280E+03
     -3.491  0.0000E+00  0.1280E+03
     -3.420  0.0000E+00  0.1280E+03
     -3.348  0.0000E+00  0.1280E+03
     -3.276  0.0000E+00  0.1280E+03
     -3.204  0.0000E+00  0.1280E+03
     -3.133  0.0000E+00  0.1280E+03
     -3.061  0.0000E+00  0.1280E+03
     -2.989  0.0000E+00  0.1280E+03
     -2.917  0.0000E+00  0.1280E+03
     -2.846  0.0000E+00  0.1280E+03
     -2.774  0.0000E+00  0.1280E+03
     -2.702  0.0000E+00  0.1280E+03
     -2.630  0.0000E+00  0.1280E+03
     -2.559  0.0000E+00  0.1280E+03
     -2.487  0.0000E+00  0.1280E+03
     -2.415  0.0000E+00  0.1280E+03
     -2.343  0.0000E+00  0.1280E+03
     -2.271  0.0000E+00  0.1280E+03
     -2.200  0.0000E+00  0.1280E+03
     -2.128  0.0000E+00  0.1280E+03
     -2.056  0.0000E+00  0.1280E+03
     -1.984  0.0000E+00  0.1280E+03
     -1.913  0.0000E+00  0.1280E+03
     -1.841  0.0000E+00  0.1280E+03
     -1.769  0.0000E+00  0.1280E+03
     -1.697  0.0000E+00  0.1280E+03
     -1.626  0.0000E+00  0.1280E+03
     -1.554  0.0000E+00  0.1280E+03
     -1.482  0.0000E+00  0.1280E+03
     -1.410  0.0000E+00  0.1280E+03
     -1.339  0.0000E+00  0.1280E+03
     -1.267  0.0000E+00  0.1280E+03
     -1.195  0.0000E+00  0.1280E+03
     -1.123  0.0000E+00  0.1280E+03
     -1.052  0.0000E+00  0.1280E+03
     -0.980  0.0000E+00  0.1280E+03
     -0.908  0.0000E+00  0.1280E+03
     -0.836  0.0000E+00  0.1280E+03
     -0.765  0.0000E+00  0.1280E+03
     -0.693  0.0000E+00  0.1280E+03
     -0.621  0.0000E+00  0.1280E+03
     -0.549  0.0000E+00  0.1280E+03
     -0.478  0.6557E-13  0.1280E+03
     -0.406  0.6310E-07  0.1280E+03
     -0.334  0.1111E-02  0.1280E+03
     -0.262  0.4131E+00  0.1280E+03
     -0.191  0.5667E+01  0.1284E+03
     -0.119  0.1390E+02  0.1294E+03
     -0.047  0.4577E+02  0.1327E+03
      0.025  0.5376E+02  0.1366E+03
      0.096  0.6827E+02  0.1415E+03
      0.168  0.2134E+03  0.1568E+03
      0.240  0.2745E+03  0.1765E+03
      0.312  0.2133E+03  0.1918E+03
      0.383  0.2365E+03  0.2088E+03
      0.455  0.2914E+03  0.2297E+03
      0.527  0.2150E+03  0.2451E+03
      0.599  0.1974E+03  0.2593E+03
      0.670  0.2092E+03  0.2743E+03
      0.742  0.2223E+03  0.2902E+03
      0.814  0.2916E+03  0.3111E+03
      0.886  0.2955E+03  0.3323E+03
      0.957  0.2620E+03  0.3511E+03
      1.029  0.3183E+03  0.3740E+03
      1.101  0.3132E+03  0.3964E+03
      1.173  0.2851E+03  0.4169E+03
      1.244  0.2381E+03  0.4340E+03
      1.316  0.2500E+03  0.4519E+03
      1.388  0.3272E+03  0.4754E+03
      1.460  0.4213E+03  0.5056E+03
      1.531  0.4095E+03  0.5350E+03
      1.603  0.4442E+03  0.5669E+03
      1.675  0.5171E+03  0.6040E+03
      1.747  0.5254E+03  0.6417E+03
      1.818  0.5134E+03  0.6785E+03
      1.890  0.3913E+03  0.7066E+03
      1.962  0.4476E+03  0.7387E+03
      2.034  0.4443E+03  0.7706E+03
      2.105  0.4742E+03  0.8046E+03
      2.177  0.5331E+03  0.8429E+03
      2.249  0.5774E+03  0.8843E+03
      2.321  0.6062E+03  0.9278E+03
      2.392  0.6705E+03  0.9759E+03
      2.464  0.6138E+03  0.1020E+04
      2.536  0.5514E+03  0.1060E+04
      2.608  0.5592E+03  0.1100E+04
      2.679  0.5718E+03  0.1141E+04
      2.751  0.6381E+03  0.1186E+04
      2.823  0.6963E+03  0.1236E+04
      2.895  0.5613E+03  0.1277E+04
      2.966  0.4699E+03  0.1310E+04
      3.038  0.4624E+03  0.1344E+04
      3.110  0.4535E+03  0.1376E+04
      3.182  0.4274E+03  0.1407E+04
      3.253  0.3611E+03  0.1433E+04
      3.325  0.2296E+03  0.1449E+04
      3.397  0.1858E+03  0.1463E+04
      3.469  0.1858E+03  0.1476E+04
      3.540  0.1904E+03  0.1490E+04
      3.612  0.2049E+03  0.1504E+04
      3.684  0.1801E+03  0.1517E+04
      3.756  0.1216E+03  0.1526E+04
      3.827  0.9447E+02  0.1533E+04
      3.899  0.1008E+03  0.1540E+04
      3.971  0.1209E+03  0.1549E+04
      4.043  0.9784E+02  0.1556E+04
      4.115  0.1019E+03  0.1563E+04
      4.186  0.1566E+03  0.1574E+04
      4.258  0.9700E+02  0.1581E+04
      4.330  0.8737E+02  0.1587E+04
      4.402  0.9344E+02  0.1594E+04
      4.473  0.9208E+02  0.1601E+04
      4.545  0.1494E+03  0.1611E+04
      4.617  0.1160E+03  0.1620E+04
      4.689  0.9282E+02  0.1626E+04
      4.760  0.1128E+03  0.1634E+04
      4.832  0.8544E+02  0.1641E+04
      4.904  0.1024E+03  0.1648E+04
      4.976  0.1702E+03  0.1660E+04
      5.047  0.1296E+03  0.1669E+04
      5.119  0.6917E+02  0.1674E+04
      5.191  0.9381E+02  0.1681E+04
      5.263  0.7401E+02  0.1686E+04
      5.334  0.1240E+03  0.1695E+04
      5.406  0.1440E+03  0.1706E+04
      5.478  0.1188E+03  0.1714E+04
      5.550  0.7236E+02  0.1719E+04
      5.621  0.9387E+02  0.1726E+04
      5.693  0.1415E+03  0.1736E+04
      5.765  0.1557E+03  0.1747E+04
      5.837  0.1065E+03  0.1755E+04
      5.908  0.1205E+03  0.1764E+04
      5.980  0.1164E+03  0.1772E+04
      6.052  0.8574E+02  0.1778E+04
      6.124  0.6200E+02  0.1783E+04
      6.195  0.4233E+02  0.1786E+04
      6.267  0.3723E+02  0.1788E+04
      6.339  0.3039E+02  0.1791E+04
      6.411  0.1356E+02  0.1792E+04
      6.482  0.7468E+01  0.1792E+04
      6.554  0.2414E+01  0.1792E+04
      6.626  0.4542E+01  0.1793E+04
      6.698  0.2810E+01  0.1793E+04
      6.769  0.2365E+01  0.1793E+04
      6.841  0.1701E+01  0.1793E+04
      6.913  0.1141E+02  0.1794E+04
      6.985  0.1504E+02  0.1795E+04
      7.056  0.1035E+02  0.1796E+04
      7.128  0.1061E+02  0.1797E+04
      7.200  0.2566E+02  0.1798E+04
      7.272  0.3100E+02  0.1801E+04
      7.343  0.1853E+02  0.1802E+04
      7.415  0.3208E+02  0.1804E+04
      7.487  0.3517E+02  0.1807E+04
      7.559  0.3734E+02  0.1809E+04
      7.630  0.5761E+02  0.1814E+04
      7.702  0.6724E+02  0.1818E+04
      7.774  0.7287E+02  0.1824E+04
      7.846  0.7324E+02  0.1829E+04
      7.917  0.6231E+02  0.1833E+04
      7.989  0.5801E+02  0.1837E+04
      8.061  0.7789E+02  0.1843E+04
      8.133  0.8137E+02  0.1849E+04
      8.204  0.8326E+02  0.1855E+04
      8.276  0.7310E+02  0.1860E+04
      8.348  0.6657E+02  0.1865E+04
      8.420  0.7404E+02  0.1870E+04
      8.491  0.8903E+02  0.1877E+04
      8.563  0.7501E+02  0.1882E+04
      8.635  0.5757E+02  0.1886E+04
      8.707  0.8130E+02  0.1892E+04
      8.778  0.8428E+02  0.1898E+04
      8.850  0.5737E+02  0.1902E+04
      8.922  0.4620E+02  0.1905E+04
      8.994  0.4010E+02  0.1908E+04
      9.065  0.5324E+02  0.1912E+04
      9.137  0.8573E+02  0.1918E+04
      9.209  0.6398E+02  0.1923E+04
      9.281  0.4914E+02  0.1926E+04
      9.352  0.5711E+02  0.1930E+04
      9.424  0.6774E+02  0.1935E+04
      9.496  0.6307E+02  0.1940E+04
      9.568  0.4073E+02  0.1943E+04
      9.639  0.7139E+02  0.1948E+04
      9.711  0.1044E+03  0.1955E+04
      9.783  0.1070E+03  0.1963E+04
      9.855  0.8804E+02  0.1969E+04
      9.926  0.7640E+02  0.1975E+04
      9.998  0.5755E+02  0.1979E+04
     10.070  0.8450E+02  0.1985E+04
     10.142  0.8797E+02  0.1991E+04
     10.213  0.1004E+03  0.1999E+04
     10.285  0.1088E+03  0.2006E+04
     10.357  0.1134E+03  0.2015E+04
     10.429  0.1100E+03  0.2022E+04
     10.501  0.9314E+02  0.2029E+04
     10.572  0.7337E+02  0.2034E+04
     10.644  0.7608E+02  0.2040E+04
     10.716  0.6933E+02  0.2045E+04
     10.788  0.6812E+02  0.2050E+04
     10.859  0.7236E+02  0.2055E+04
     10.931  0.7186E+02  0.2060E+04
     11.003  0.5556E+02  0.2064E+04
     11.075  0.9376E+02  0.2071E+04
     11.146  0.1046E+03  0.2078E+04
     11.218  0.8064E+02  0.2084E+04
     11.290  0.9493E+02  0.2091E+04
     11.362  0.8161E+02  0.2097E+04
     11.433  0.1071E+03  0.2104E+04
     11.505  0.1296E+03  0.2114E+04
     11.577  0.1184E+03  0.2122E+04
     11.649  0.1051E+03  0.2130E+04
     11.720  0.6259E+02  0.2134E+04
     11.792  0.9051E+02  0.2141E+04
     11.864  0.4968E+02  0.2144E+04
     11.936  0.2695E+02  0.2146E+04
     12.007  0.1378E+02  0.2147E+04
     12.079  0.1927E+02  0.2149E+04
     12.151  0.1323E+02  0.2150E+04
     12.223  0.5805E+01  0.2150E+04
     12.294  0.4815E+00  0.2150E+04
     12.366  0.1734E-02  0.2150E+04
     12.438  0.1573E-06  0.2150E+04
     12.510  0.2781E-12  0.2150E+04
     12.581  0.0000E+00  0.2150E+04
     12.653  0.0000E+00  0.2150E+04
     12.725  0.0000E+00  0.2150E+04
     12.797  0.0000E+00  0.2150E+04
     12.868  0.0000E+00  0.2150E+04
     12.940  0.0000E+00  0.2150E+04
     13.012  0.0000E+00  0.2150E+04
     13.084  0.0000E+00  0.2150E+04
     13.155  0.0000E+00  0.2150E+04
