<?xml version="1.0" encoding="ISO-8859-1"?>
<modeling>
 <generator>
  <i name="program" type="string">vasp </i>
  <i name="version" type="string">5.4.4.18Apr17-6-g9f103f2a35  </i>
  <i name="subversion" type="string">(build Jul 30 2020 14:31:59) complex            parallel </i>
  <i name="platform" type="string">LinuxIFC </i>
  <i name="date" type="string">2021 02 04 </i>
  <i name="time" type="string">08:21:28 </i>
 </generator>
 <incar>
  <i type="string" name="PREC">accurate</i>
  <i type="string" name="ALGO"> normal</i>
  <i type="logical" name="ADDGRID"> T  </i>
  <i type="int" name="ISPIN">     1</i>
  <i type="int" name="NELM">   200</i>
  <i type="int" name="NELMIN">     8</i>
  <i name="EDIFF">      0.00000001</i>
  <i type="int" name="ISIF">     3</i>
  <i type="int" name="ISYM">     0</i>
  <i name="ENCUT">    650.00000000</i>
  <i type="logical" name="LREAL"> F  </i>
  <i type="int" name="ISMEAR">     0</i>
  <i name="SIGMA">      0.05000000</i>
  <i type="logical" name="LWAVE"> F  </i>
  <i type="logical" name="LASPH"> T  </i>
  <v type="int" name="KPOINT_BSE">    -1     0     0     0</v>
  <i type="int" name="NELM">   200</i>
  <i type="string" name="GGA"> ps</i>
  <i type="logical" name="LASPH"> T  </i>
 </incar>
 <structure name="primitive_cell" >
  <crystal>
   <varray name="basis" >
    <v>      14.01039598       0.00139138       0.00000000 </v>
    <v>      -0.00150196      13.76691092       0.00000000 </v>
    <v>       0.00000000       0.00000000      14.55019386 </v>
   </varray>
   <i name="volume">   2806.43958022 </i>
   <varray name="rec_basis" >
    <v>       0.07137557       0.00000779       0.00000000 </v>
    <v>      -0.00000721       0.07263794       0.00000000 </v>
    <v>       0.00000000       0.00000000       0.06872761 </v>
   </varray>
  </crystal>
  <varray name="positions" >
   <v>       0.42987898       0.17167077       0.33247735 </v>
   <v>      -0.50000000       0.00000000       0.38812698 </v>
   <v>       0.25000000       0.25000000       0.33409665 </v>
   <v>      -0.50000000       0.25000000       0.16743769 </v>
   <v>      -0.42987656       0.07832506       0.22308000 </v>
   <v>      -0.50000000       0.25000000      -0.49922898 </v>
   <v>       0.32012224       0.17167631       0.49914189 </v>
   <v>       0.32012224       0.17167631       0.16580856 </v>
   <v>      -0.42987898       0.32832923       0.33247735 </v>
   <v>       0.42987656      -0.07832506       0.22308000 </v>
   <v>       0.42916280       0.42167494       0.22308000 </v>
   <v>       0.25000000       0.00000000       0.22145206 </v>
   <v>       0.17987948       0.07832633       0.38974408 </v>
   <v>      -0.32012052       0.07832633       0.38974408 </v>
   <v>       0.32012052      -0.07832633       0.38974408 </v>
   <v>       0.32012052       0.42167367       0.38974408 </v>
   <v>      -0.42987656       0.07832506      -0.44358667 </v>
   <v>      -0.25000000       0.25000000       0.33409665 </v>
   <v>      -0.50000000      -0.50000000       0.38812698 </v>
   <v>       0.25000000       0.00000000      -0.44521461 </v>
   <v>       0.42987656      -0.07832506      -0.44358667 </v>
   <v>       0.42987656       0.42167494      -0.44358667 </v>
   <v>      -0.32012224       0.32832369       0.49914189 </v>
   <v>      -0.32012224       0.32832369       0.16580856 </v>
   <v>       0.17987776       0.32832369       0.49914189 </v>
   <v>       0.17987776       0.32832369       0.16580856 </v>
   <v>      -0.50000000       0.00000000       0.05479365 </v>
   <v>       0.42987898       0.17167077      -0.33418932 </v>
   <v>       0.42987898       0.17167077      -0.00085599 </v>
   <v>      -0.42987898      -0.17167077       0.33247735 </v>
   <v>      -0.25000000       0.00000000       0.22145206 </v>
   <v>       0.25000000      -0.50000000       0.22145206 </v>
   <v>       0.07012344       0.07832506       0.22308000 </v>
   <v>       0.17987948       0.07832633       0.05641075 </v>
   <v>      -0.32012052       0.07832633       0.05641075 </v>
   <v>       0.07012102       0.32832923       0.33247735 </v>
   <v>       0.32012052      -0.07832633       0.05641075 </v>
   <v>       0.32012052       0.42167367       0.05641075 </v>
   <v>       0.25000000       0.25000000       0.00076332 </v>
   <v>       0.25000000       0.25000000      -0.33257001 </v>
   <v>      -0.42987898       0.32832923      -0.33418932 </v>
   <v>      -0.42987898       0.32832923      -0.00085599 </v>
   <v>      -0.17987776       0.17167631       0.49914189 </v>
   <v>      -0.17987776       0.17167631       0.16580856 </v>
   <v>      -0.25000000       0.00000000      -0.44521461 </v>
   <v>       0.25000000      -0.50000000      -0.44521461 </v>
   <v>       0.07012344       0.07832506      -0.44358667 </v>
   <v>      -0.50000000      -0.50000000       0.05479365 </v>
   <v>      -0.42987656      -0.42167494       0.22308000 </v>
   <v>      -0.50000000       0.00000000      -0.27853968 </v>
   <v>       0.25000000      -0.25000000       0.33409665 </v>
   <v>      -0.50000000      -0.25000000       0.16743769 </v>
   <v>       0.17987776      -0.17167631       0.49914189 </v>
   <v>       0.17987776      -0.17167631       0.16580856 </v>
   <v>      -0.32012224      -0.17167631       0.49914189 </v>
   <v>      -0.32012224      -0.17167631       0.16580856 </v>
   <v>      -0.50000000      -0.25000000      -0.49922898 </v>
   <v>      -0.17987948       0.42167367       0.38974408 </v>
   <v>      -0.17987948      -0.07832633       0.38974408 </v>
   <v>       0.00000000       0.00000000       0.38812698 </v>
   <v>      -0.25000000      -0.50000000       0.22145206 </v>
   <v>       0.00000000       0.25000000       0.16743769 </v>
   <v>       0.00000000       0.25000000      -0.49922898 </v>
   <v>      -0.32012052      -0.42167367       0.38974408 </v>
   <v>       0.17987948      -0.42167367       0.38974408 </v>
   <v>      -0.25000000       0.25000000       0.00076332 </v>
   <v>      -0.25000000       0.25000000      -0.33257001 </v>
   <v>      -0.42987656      -0.42167494      -0.44358667 </v>
   <v>       0.17987948       0.07832633      -0.27692259 </v>
   <v>      -0.32012052       0.07832633      -0.27692259 </v>
   <v>       0.32012052      -0.07832633      -0.27692259 </v>
   <v>       0.32012052       0.42167367      -0.27692259 </v>
   <v>      -0.42987656       0.07832506      -0.11025334 </v>
   <v>       0.42987898      -0.32832923       0.33247735 </v>
   <v>       0.07012102      -0.17167077       0.33247735 </v>
   <v>      -0.07012102       0.17167077       0.33247735 </v>
   <v>      -0.42987898      -0.17167077      -0.33418932 </v>
   <v>      -0.42987898      -0.17167077      -0.00085599 </v>
   <v>      -0.25000000      -0.50000000      -0.44521461 </v>
   <v>       0.42987656      -0.07832506      -0.11025334 </v>
   <v>       0.42987656       0.42167494      -0.11025334 </v>
   <v>      -0.50000000      -0.50000000      -0.27853968 </v>
   <v>       0.07012102       0.32832923      -0.33418932 </v>
   <v>       0.07012102       0.32832923      -0.00085599 </v>
   <v>       0.25000000       0.00000000      -0.11188127 </v>
   <v>      -0.25000000      -0.25000000       0.33409665 </v>
   <v>      -0.50000000       0.25000000      -0.16589565 </v>
   <v>       0.32012224       0.17167631      -0.16752478 </v>
   <v>       0.32012224      -0.32832369       0.49914189 </v>
   <v>       0.32012224      -0.32832369       0.16580856 </v>
   <v>       0.00000000      -0.50000000       0.38812698 </v>
   <v>      -0.17987948       0.42167367       0.05641075 </v>
   <v>      -0.17987948      -0.07832633       0.05641075 </v>
   <v>       0.00000000       0.00000000       0.05479365 </v>
   <v>       0.07012344      -0.42167494       0.22308000 </v>
   <v>      -0.32012052      -0.42167367       0.05641075 </v>
   <v>       0.17987948      -0.42167367       0.05641075 </v>
   <v>       0.25000000      -0.25000000       0.00076332 </v>
   <v>      -0.07012344       0.42167494       0.22308000 </v>
   <v>      -0.07012344      -0.07832506       0.22308000 </v>
   <v>       0.25000000      -0.25000000      -0.33257001 </v>
   <v>       0.07012344      -0.42167494      -0.44358667 </v>
   <v>      -0.25000000       0.00000000      -0.11188127 </v>
   <v>       0.07012344       0.07832506      -0.11025334 </v>
   <v>       0.25000000      -0.50000000      -0.11188127 </v>
   <v>      -0.32012224       0.32832369      -0.16752478 </v>
   <v>       0.17987776       0.32832369      -0.16752478 </v>
   <v>       0.42987898      -0.32832923      -0.33418932 </v>
   <v>       0.42987898      -0.32832923      -0.00085599 </v>
   <v>       0.07012102      -0.17167077      -0.33418932 </v>
   <v>       0.07012102      -0.17167077      -0.00085599 </v>
   <v>      -0.07012344       0.42167494      -0.44358667 </v>
   <v>      -0.07012344      -0.07832506      -0.44358667 </v>
   <v>      -0.07012102       0.17167077      -0.33418932 </v>
   <v>      -0.07012102       0.17167077      -0.00085599 </v>
   <v>       0.00000000      -0.50000000       0.05479365 </v>
   <v>       0.00000000       0.00000000      -0.27853968 </v>
   <v>      -0.17987948       0.42167367      -0.27692259 </v>
   <v>      -0.17987948      -0.07832633      -0.27692259 </v>
   <v>       0.00000000      -0.25000000       0.16743769 </v>
   <v>      -0.32012052      -0.42167367      -0.27692259 </v>
   <v>       0.17987948      -0.42167367      -0.27692259 </v>
   <v>       0.00000000      -0.25000000      -0.49922898 </v>
   <v>      -0.42987656      -0.42167494      -0.11025334 </v>
   <v>      -0.25000000      -0.25000000       0.00076332 </v>
   <v>      -0.25000000      -0.25000000      -0.33257001 </v>
   <v>      -0.25000000      -0.50000000      -0.11188127 </v>
   <v>      -0.17987776       0.17167631      -0.16752478 </v>
   <v>      -0.17987776      -0.32832369       0.49914189 </v>
   <v>      -0.17987776      -0.32832369       0.16580856 </v>
   <v>      -0.50000000      -0.25000000      -0.16589565 </v>
   <v>       0.17987776      -0.17167631      -0.16752478 </v>
   <v>      -0.32012224      -0.17167631      -0.16752478 </v>
   <v>       0.00000000      -0.50000000      -0.27853968 </v>
   <v>       0.00000000       0.25000000      -0.16589565 </v>
   <v>      -0.07012102      -0.32832923       0.33247735 </v>
   <v>       0.07012344      -0.42167494      -0.11025334 </v>
   <v>      -0.07012344       0.42167494      -0.11025334 </v>
   <v>      -0.07012344      -0.07832506      -0.11025334 </v>
   <v>       0.32012224      -0.32832369      -0.16752478 </v>
   <v>      -0.07012102      -0.32832923      -0.33418932 </v>
   <v>      -0.07012102      -0.32832923      -0.00085599 </v>
   <v>       0.00000000      -0.25000000      -0.16589565 </v>
   <v>      -0.17987776      -0.32832369      -0.16752478 </v>
  </varray>
 </structure>
 <varray name="primitive_index" >
  <v type="int" >        1 </v>
  <v type="int" >      102 </v>
  <v type="int" >      137 </v>
  <v type="int" >      122 </v>
  <v type="int" >       86 </v>
  <v type="int" >      126 </v>
  <v type="int" >       65 </v>
  <v type="int" >       61 </v>
  <v type="int" >       14 </v>
  <v type="int" >       75 </v>
  <v type="int" >       73 </v>
  <v type="int" >      109 </v>
  <v type="int" >       41 </v>
  <v type="int" >       42 </v>
  <v type="int" >       31 </v>
  <v type="int" >       29 </v>
  <v type="int" >       90 </v>
  <v type="int" >      138 </v>
  <v type="int" >      104 </v>
  <v type="int" >      113 </v>
  <v type="int" >       79 </v>
  <v type="int" >       77 </v>
  <v type="int" >       54 </v>
  <v type="int" >       50 </v>
  <v type="int" >       53 </v>
  <v type="int" >       49 </v>
  <v type="int" >       98 </v>
  <v type="int" >        5 </v>
  <v type="int" >        9 </v>
  <v type="int" >       16 </v>
  <v type="int" >      110 </v>
  <v type="int" >      111 </v>
  <v type="int" >       85 </v>
  <v type="int" >       37 </v>
  <v type="int" >       38 </v>
  <v type="int" >       13 </v>
  <v type="int" >       27 </v>
  <v type="int" >       25 </v>
  <v type="int" >      133 </v>
  <v type="int" >      141 </v>
  <v type="int" >       18 </v>
  <v type="int" >       22 </v>
  <v type="int" >       66 </v>
  <v type="int" >       62 </v>
  <v type="int" >      114 </v>
  <v type="int" >      115 </v>
  <v type="int" >       89 </v>
  <v type="int" >      100 </v>
  <v type="int" >       88 </v>
  <v type="int" >      106 </v>
  <v type="int" >      139 </v>
  <v type="int" >      124 </v>
  <v type="int" >       55 </v>
  <v type="int" >       51 </v>
  <v type="int" >       56 </v>
  <v type="int" >       52 </v>
  <v type="int" >      128 </v>
  <v type="int" >       30 </v>
  <v type="int" >       32 </v>
  <v type="int" >      101 </v>
  <v type="int" >      112 </v>
  <v type="int" >      121 </v>
  <v type="int" >      125 </v>
  <v type="int" >       44 </v>
  <v type="int" >       43 </v>
  <v type="int" >      134 </v>
  <v type="int" >      142 </v>
  <v type="int" >       92 </v>
  <v type="int" >       45 </v>
  <v type="int" >       46 </v>
  <v type="int" >       35 </v>
  <v type="int" >       33 </v>
  <v type="int" >       94 </v>
  <v type="int" >        3 </v>
  <v type="int" >       15 </v>
  <v type="int" >        2 </v>
  <v type="int" >       20 </v>
  <v type="int" >       24 </v>
  <v type="int" >      116 </v>
  <v type="int" >       83 </v>
  <v type="int" >       81 </v>
  <v type="int" >      108 </v>
  <v type="int" >       17 </v>
  <v type="int" >       21 </v>
  <v type="int" >      117 </v>
  <v type="int" >      140 </v>
  <v type="int" >      130 </v>
  <v type="int" >       69 </v>
  <v type="int" >       67 </v>
  <v type="int" >       63 </v>
  <v type="int" >      103 </v>
  <v type="int" >       26 </v>
  <v type="int" >       28 </v>
  <v type="int" >       97 </v>
  <v type="int" >       87 </v>
  <v type="int" >       40 </v>
  <v type="int" >       39 </v>
  <v type="int" >      135 </v>
  <v type="int" >       74 </v>
  <v type="int" >       76 </v>
  <v type="int" >      143 </v>
  <v type="int" >       91 </v>
  <v type="int" >      118 </v>
  <v type="int" >       93 </v>
  <v type="int" >      119 </v>
  <v type="int" >       58 </v>
  <v type="int" >       57 </v>
  <v type="int" >        7 </v>
  <v type="int" >       11 </v>
  <v type="int" >       19 </v>
  <v type="int" >       23 </v>
  <v type="int" >       78 </v>
  <v type="int" >       80 </v>
  <v type="int" >        6 </v>
  <v type="int" >       10 </v>
  <v type="int" >       99 </v>
  <v type="int" >      105 </v>
  <v type="int" >       34 </v>
  <v type="int" >       36 </v>
  <v type="int" >      123 </v>
  <v type="int" >       48 </v>
  <v type="int" >       47 </v>
  <v type="int" >      127 </v>
  <v type="int" >       96 </v>
  <v type="int" >      136 </v>
  <v type="int" >      144 </v>
  <v type="int" >      120 </v>
  <v type="int" >       70 </v>
  <v type="int" >       68 </v>
  <v type="int" >       64 </v>
  <v type="int" >      132 </v>
  <v type="int" >       59 </v>
  <v type="int" >       60 </v>
  <v type="int" >      107 </v>
  <v type="int" >      129 </v>
  <v type="int" >        4 </v>
  <v type="int" >       95 </v>
  <v type="int" >       82 </v>
  <v type="int" >       84 </v>
  <v type="int" >       71 </v>
  <v type="int" >        8 </v>
  <v type="int" >       12 </v>
  <v type="int" >      131 </v>
  <v type="int" >       72 </v>
 </varray>
 <kpoints>
  <generation param="Gamma">
   <v type="int" name="divisions">       2        2        2 </v>
   <v name="usershift">      0.00000000       0.00000000       0.00000000 </v>
   <v name="genvec1">      0.50000000       0.00000000       0.00000000 </v>
   <v name="genvec2">      0.00000000       0.50000000       0.00000000 </v>
   <v name="genvec3">      0.00000000       0.00000000       0.50000000 </v>
   <v name="shift">      0.00000000       0.00000000       0.00000000 </v>
  </generation>
  <varray name="kpointlist" >
   <v>       0.00000000       0.00000000       0.00000000 </v>
   <v>       0.50000000      -0.00000000       0.00000000 </v>
   <v>       0.00000000       0.50000000       0.00000000 </v>
   <v>       0.50000000       0.50000000       0.00000000 </v>
   <v>       0.00000000       0.00000000       0.50000000 </v>
   <v>       0.50000000      -0.00000000       0.50000000 </v>
   <v>       0.00000000       0.50000000       0.50000000 </v>
   <v>       0.50000000       0.50000000       0.50000000 </v>
  </varray>
  <varray name="weights" >
   <v>       0.12500000 </v>
   <v>       0.12500000 </v>
   <v>       0.12500000 </v>
   <v>       0.12500000 </v>
   <v>       0.12500000 </v>
   <v>       0.12500000 </v>
   <v>       0.12500000 </v>
   <v>       0.12500000 </v>
  </varray>
 </kpoints>
 <parameters>
  <separator name="general" >
   <i type="string" name="SYSTEM">unknown system</i>
   <i type="logical" name="LCOMPAT"> F  </i>
  </separator>
  <separator name="electronic" >
   <i type="string" name="PREC">accura</i>
   <i name="ENMAX">    650.00000000</i>
   <i name="ENAUG">    446.84200000</i>
   <i name="EDIFF">      0.00000001</i>
   <i type="int" name="IALGO">    38</i>
   <i type="int" name="IWAVPR">    10</i>
   <i type="int" name="NBANDS">   806</i>
   <i name="NELECT">   1344.00000000</i>
   <i type="int" name="TURBO">     0</i>
   <i type="int" name="IRESTART">     0</i>
   <i type="int" name="NREBOOT">     0</i>
   <i type="int" name="NMIN">     0</i>
   <i name="EREF">      0.00000000</i>
   <separator name="electronic smearing" >
    <i type="int" name="ISMEAR">     0</i>
    <i name="SIGMA">      0.05000000</i>
    <i name="KSPACING">      0.50000000</i>
    <i type="logical" name="KGAMMA"> T  </i>
   </separator>
   <separator name="electronic projectors" >
    <i type="logical" name="LREAL"> F  </i>
    <v name="ROPT">      0.00000000      0.00000000</v>
    <i type="int" name="LMAXPAW">  -100</i>
    <i type="int" name="LMAXMIX">     2</i>
    <i type="logical" name="NLSPLINE"> F  </i>
   </separator>
   <separator name="electronic startup" >
    <i type="int" name="ISTART">     0</i>
    <i type="int" name="ICHARG">     2</i>
    <i type="int" name="INIWAV">     1</i>
   </separator>
   <separator name="electronic spin" >
    <i type="int" name="ISPIN">     1</i>
    <i type="logical" name="LNONCOLLINEAR"> F  </i>
    <v name="MAGMOM">      1.00000000      1.00000000      1.00000000      1.00000000      1.00000000      1.00000000      1.00000000      1.00000000      1.00000000      1.00000000      1.00000000      1.00000000      1.00000000      1.00000000      1.00000000      1.00000000      1.00000000      1.00000000      1.00000000      1.00000000
      1.00000000      1.00000000      1.00000000      1.00000000      1.00000000      1.00000000      1.00000000      1.00000000      1.00000000      1.00000000      1.00000000      1.00000000      1.00000000      1.00000000      1.00000000      1.00000000      1.00000000      1.00000000      1.00000000      1.00000000
      1.00000000      1.00000000      1.00000000      1.00000000      1.00000000      1.00000000      1.00000000      1.00000000      1.00000000      1.00000000      1.00000000      1.00000000      1.00000000      1.00000000      1.00000000      1.00000000      1.00000000      1.00000000      1.00000000      1.00000000
      1.00000000      1.00000000      1.00000000      1.00000000      1.00000000      1.00000000      1.00000000      1.00000000      1.00000000      1.00000000      1.00000000      1.00000000      1.00000000      1.00000000      1.00000000      1.00000000      1.00000000      1.00000000      1.00000000      1.00000000
      1.00000000      1.00000000      1.00000000      1.00000000      1.00000000      1.00000000      1.00000000      1.00000000      1.00000000      1.00000000      1.00000000      1.00000000      1.00000000      1.00000000      1.00000000      1.00000000      1.00000000      1.00000000      1.00000000      1.00000000
      1.00000000      1.00000000      1.00000000      1.00000000      1.00000000      1.00000000      1.00000000      1.00000000      1.00000000      1.00000000      1.00000000      1.00000000      1.00000000      1.00000000      1.00000000      1.00000000      1.00000000      1.00000000      1.00000000      1.00000000
      1.00000000      1.00000000      1.00000000      1.00000000      1.00000000      1.00000000      1.00000000      1.00000000      1.00000000      1.00000000      1.00000000      1.00000000      1.00000000      1.00000000      1.00000000      1.00000000      1.00000000      1.00000000      1.00000000      1.00000000
      1.00000000      1.00000000      1.00000000      1.00000000</v>
    <i name="NUPDOWN">     -1.00000000</i>
    <i type="logical" name="LSORBIT"> F  </i>
    <v name="SAXIS">      0.00000000      0.00000000      1.00000000</v>
    <i type="logical" name="LSPIRAL"> F  </i>
    <v name="QSPIRAL">      0.00000000      0.00000000      0.00000000</v>
    <i type="logical" name="LZEROZ"> F  </i>
   </separator>
   <separator name="electronic exchange-correlation" >
    <i type="logical" name="LASPH"> T  </i>
    <i type="logical" name="LMETAGGA"> F  </i>
   </separator>
   <separator name="electronic convergence" >
    <i type="int" name="NELM">   200</i>
    <i type="int" name="NELMDL">    -5</i>
    <i type="int" name="NELMIN">     8</i>
    <i name="ENINI">    650.00000000</i>
    <separator name="electronic convergence detail" >
     <i type="logical" name="LDIAG"> T  </i>
     <i type="logical" name="LSUBROT"> F  </i>
     <i name="WEIMIN">      0.00000000</i>
     <i name="EBREAK">      0.00000000</i>
     <i name="DEPER">      0.30000000</i>
     <i type="int" name="NRMM">     4</i>
     <i name="TIME">      0.40000000</i>
    </separator>
   </separator>
   <separator name="electronic mixer" >
    <i name="AMIX">      0.40000000</i>
    <i name="BMIX">      1.00000000</i>
    <i name="AMIN">      0.10000000</i>
    <i name="AMIX_MAG">      1.60000000</i>
    <i name="BMIX_MAG">      1.00000000</i>
    <separator name="electronic mixer details" >
     <i type="int" name="IMIX">     4</i>
     <i type="logical" name="MIXFIRST"> F  </i>
     <i type="int" name="MAXMIX">   -45</i>
     <i name="WC">    100.00000000</i>
     <i type="int" name="INIMIX">     1</i>
     <i type="int" name="MIXPRE">     1</i>
     <i type="int" name="MREMOVE">     5</i>
    </separator>
   </separator>
   <separator name="electronic dipolcorrection" >
    <i type="logical" name="LDIPOL"> F  </i>
    <i type="logical" name="LMONO"> F  </i>
    <i type="int" name="IDIPOL">     0</i>
    <i name="EPSILON">      1.00000000</i>
    <v name="DIPOL">   -100.00000000   -100.00000000   -100.00000000</v>
    <i name="EFIELD">      0.00000000</i>
   </separator>
  </separator>
  <separator name="grids" >
   <i type="int" name="NGX">   120</i>
   <i type="int" name="NGY">   120</i>
   <i type="int" name="NGZ">   126</i>
   <i type="int" name="NGXF">   240</i>
   <i type="int" name="NGYF">   240</i>
   <i type="int" name="NGZF">   252</i>
   <i type="logical" name="ADDGRID"> T  </i>
  </separator>
  <separator name="ionic" >
   <i type="int" name="NSW">     0</i>
   <i type="int" name="IBRION">    -1</i>
   <i type="int" name="MDALGO">     0</i>
   <i type="int" name="ISIF">     3</i>
   <i name="PSTRESS">      0.00000000</i>
   <i name="EDIFFG">      0.00000010</i>
   <i type="int" name="NFREE">     0</i>
   <i name="POTIM">      0.50000000</i>
   <i name="SMASS">     -3.00000000</i>
   <i name="SCALEE">      1.00000000</i>
  </separator>
  <separator name="ionic md" >
   <i name="TEBEG">      0.00010000</i>
   <i name="TEEND">      0.00010000</i>
   <i type="int" name="NBLOCK">     1</i>
   <i type="int" name="KBLOCK">     1</i>
   <i type="int" name="NPACO">   256</i>
   <i name="APACO">     16.00000000</i>
  </separator>
  <separator name="symmetry" >
   <i type="int" name="ISYM">     0</i>
   <i name="SYMPREC">      0.00001000</i>
  </separator>
  <separator name="dos" >
   <i type="int" name="LORBIT">     0</i>
   <v name="RWIGS">     -1.00000000     -1.00000000</v>
   <i type="int" name="NEDOS">   301</i>
   <i name="EMIN">     10.00000000</i>
   <i name="EMAX">    -10.00000000</i>
   <i name="EFERMI">      0.00000000</i>
  </separator>
  <separator name="writing" >
   <i type="int" name="NWRITE">     2</i>
   <i type="logical" name="LWAVE"> F  </i>
   <i type="logical" name="LDOWNSAMPLE"> F  </i>
   <i type="logical" name="LCHARG"> T  </i>
   <i type="logical" name="LPARD"> F  </i>
   <i type="logical" name="LVTOT"> F  </i>
   <i type="logical" name="LVHAR"> F  </i>
   <i type="logical" name="LELF"> F  </i>
   <i type="logical" name="LOPTICS"> F  </i>
   <v name="STM">      0.00000000      0.00000000      0.00000000      0.00000000      0.00000000      0.00000000      0.00000000</v>
  </separator>
  <separator name="performance" >
   <i type="int" name="NPAR">     1</i>
   <i type="int" name="NSIM">     4</i>
   <i type="int" name="NBLK">    -1</i>
   <i type="logical" name="LPLANE"> T  </i>
   <i type="logical" name="LSCALAPACK"> T  </i>
   <i type="logical" name="LSCAAWARE"> F  </i>
   <i type="logical" name="LSCALU"> F  </i>
   <i type="logical" name="LASYNC"> F  </i>
   <i type="logical" name="LORBITALREAL"> F  </i>
  </separator>
  <separator name="miscellaneous" >
   <i type="int" name="IDIOT">     3</i>
   <i type="int" name="ISPECIAL">     0</i>
   <i type="logical" name="LMUSIC"> F  </i>
   <v name="POMASS">    107.86800000     78.96000000</v>
   <v name="DARWINR">      0.00000000      0.00000000</v>
   <v name="DARWINV">      1.00000000      1.00000000</v>
   <i type="logical" name="LCORR"> T  </i>
  </separator>
  <i type="logical" name="GGA_COMPAT"> T  </i>
  <i type="logical" name="LBERRY"> F  </i>
  <i type="int" name="ICORELEVEL">     0</i>
  <i type="logical" name="LDAU"> F  </i>
  <i type="int" name="I_CONSTRAINED_M">     0</i>
  <separator name="electronic exchange-correlation" >
   <i type="string" name="GGA">PS</i>
   <i type="int" name="VOSKOWN">     0</i>
   <i type="logical" name="LHFCALC"> F  </i>
   <i type="string" name="PRECFOCK"></i>
   <i type="logical" name="LSYMGRAD"> F  </i>
   <i type="logical" name="LHFONE"> F  </i>
   <i type="logical" name="LRHFCALC"> F  </i>
   <i type="logical" name="LTHOMAS"> F  </i>
   <i type="logical" name="LMODELHF"> F  </i>
   <i name="ENCUT4O">     -1.00000000</i>
   <i type="int" name="EXXOEP">     0</i>
   <i type="int" name="FOURORBIT">     0</i>
   <i name="AEXX">      0.00000000</i>
   <i name="HFALPHA">      0.00000000</i>
   <i name="MCALPHA">      0.00000000</i>
   <i name="ALDAX">      1.00000000</i>
   <i name="AGGAX">      1.00000000</i>
   <i name="ALDAC">      1.00000000</i>
   <i name="AGGAC">      1.00000000</i>
   <i type="int" name="NKREDX">     1</i>
   <i type="int" name="NKREDY">     1</i>
   <i type="int" name="NKREDZ">     1</i>
   <i type="logical" name="SHIFTRED"> F  </i>
   <i type="logical" name="ODDONLY"> F  </i>
   <i type="logical" name="EVENONLY"> F  </i>
   <i type="int" name="LMAXFOCK">     0</i>
   <i type="int" name="NMAXFOCKAE">     0</i>
   <i type="logical" name="LFOCKAEDFT"> F  </i>
   <i name="HFSCREEN">      0.00000000</i>
   <i name="HFSCREENC">      0.00000000</i>
   <i type="int" name="NBANDSGWLOW">     0</i>
  </separator>
  <separator name="vdW DFT" >
   <i type="logical" name="LUSE_VDW"> F  </i>
   <i name="Zab_VDW">     -0.84910000</i>
   <i name="PARAM1">      0.12340000</i>
   <i name="PARAM2">      1.00000000</i>
   <i name="PARAM3">      0.00000000</i>
  </separator>
  <separator name="model GW" >
   <i type="int" name="MODEL_GW">     0</i>
   <i name="MODEL_EPS0">     11.69349825</i>
   <i name="MODEL_ALPHA">      1.00000000</i>
  </separator>
  <separator name="linear response parameters" >
   <i type="logical" name="LEPSILON"> F  </i>
   <i type="logical" name="LRPA"> F  </i>
   <i type="logical" name="LNABLA"> F  </i>
   <i type="logical" name="LVEL"> F  </i>
   <i type="int" name="KINTER">     0</i>
   <i name="CSHIFT">      0.10000000</i>
   <i name="OMEGAMAX">     -1.00000000</i>
   <i name="DEG_THRESHOLD">      0.00200000</i>
   <i name="RTIME">     -0.10000000</i>
   <i name="WPLASMAI">      0.00000000</i>
   <v name="DFIELD">      0.00000000      0.00000000      0.00000000</v>
   <v name="WPLASMA">      0.00000000      0.00000000      0.00000000      0.00000000      0.00000000      0.00000000      0.00000000      0.00000000      0.00000000</v>
  </separator>
  <separator name="orbital magnetization" >
   <i type="logical" name="NUCIND"> F  </i>
   <v name="MAGPOS">      0.00000000      0.00000000      0.00000000</v>
   <i type="logical" name="LNICSALL"> T  </i>
   <i type="logical" name="ORBITALMAG"> F  </i>
   <i type="logical" name="LMAGBLOCH"> F  </i>
   <i type="logical" name="LCHIMAG"> F  </i>
   <i type="logical" name="LGAUGE"> T  </i>
   <i type="int" name="MAGATOM">     0</i>
   <v name="MAGDIPOL">      0.00000000      0.00000000      0.00000000</v>
   <v name="AVECCONST">      0.00000000      0.00000000      0.00000000</v>
  </separator>
  <separator name="response functions" >
   <i type="logical" name="LADDER"> F  </i>
   <i type="logical" name="LRPAFORCE"> F  </i>
   <i type="logical" name="LFXC"> F  </i>
   <i type="logical" name="LHARTREE"> T  </i>
   <i type="int" name="IBSE">     0</i>
   <v type="int" name="KPOINT">    -1     0     0     0</v>
   <i type="logical" name="LTCTE"> F  </i>
   <i type="logical" name="LTETE"> F  </i>
   <i type="logical" name="LTRIPLET"> F  </i>
   <i type="logical" name="LFXCEPS"> F  </i>
   <i type="logical" name="LFXHEG"> F  </i>
   <i type="int" name="NATURALO">     2</i>
   <i type="logical" name="L2ORDER"> F  </i>
   <i type="logical" name="LMP2LT"> F  </i>
   <i type="logical" name="LUSEW"> F  </i>
   <i name="ENCUTGW">     -2.00000000</i>
   <i name="ENCUTGWSOFT">     -2.00000000</i>
   <i name="ENCUTLF">     -1.00000000</i>
   <i type="int" name="LMAXMP2">    -1</i>
   <i name="SCISSOR">      0.00000000</i>
   <i type="int" name="NOMEGA">     0</i>
   <i type="int" name="NOMEGAR">     0</i>
   <i type="int" name="NBANDSGW">    -1</i>
   <i type="int" name="NBANDSO">    -1</i>
   <i type="int" name="NBANDSV">    -1</i>
   <i type="int" name="NELM">   200</i>
   <i type="int" name="NELMHF">     1</i>
   <i type="int" name="DIM">     3</i>
   <i type="int" name="ANTIRES">     0</i>
   <i name="OMEGAMAX">    -30.00000000</i>
   <i name="OMEGAMIN">    -30.00000000</i>
   <i name="OMEGATL">   -200.00000000</i>
   <i type="int" name="OMEGAGRID">   140</i>
   <i name="CSHIFT">     -0.10000000</i>
   <i type="logical" name="SELFENERGY"> F  </i>
   <i type="logical" name="LSPECTRAL"> F  </i>
   <i type="logical" name="LSPECTRALGW"> F  </i>
   <i type="logical" name="LSINGLES"> F  </i>
   <i type="logical" name="LFERMIGW"> F  </i>
   <i type="logical" name="ODDONLYGW"> F  </i>
   <i type="logical" name="EVENONLYGW"> F  </i>
   <i type="int" name="NKREDLFX">     1</i>
   <i type="int" name="NKREDLFY">     1</i>
   <i type="int" name="NKREDLFZ">     1</i>
   <i type="int" name="MAXMEM">  2800</i>
   <i type="int" name="TELESCOPE">     0</i>
   <i type="int" name="TAUPAR">     1</i>
   <i type="int" name="OMEGAPAR">    -1</i>
   <i name="LAMBDA">      1.00000000</i>
  </separator>
  <separator name="External order field" >
   <i name="OFIELD_KAPPA">      0.00000000</i>
   <v name="OFIELD_K">      0.00000000      0.00000000      0.00000000</v>
   <i name="OFIELD_Q6_NEAR">      0.00000000</i>
   <i name="OFIELD_Q6_FAR">      0.00000000</i>
   <i name="OFIELD_A">      0.00000000</i>
  </separator>
 </parameters>
 <atominfo>
  <atoms>     144 </atoms>
  <types>       2 </types>
  <array name="atoms" >
   <dimension dim="1">ion</dimension>
   <field type="string">element</field>
   <field type="int">atomtype</field>
   <set>
    <rc><c>Ag</c><c>   1</c></rc>
    <rc><c>Ag</c><c>   1</c></rc>
    <rc><c>Ag</c><c>   1</c></rc>
    <rc><c>Ag</c><c>   1</c></rc>
    <rc><c>Ag</c><c>   1</c></rc>
    <rc><c>Ag</c><c>   1</c></rc>
    <rc><c>Ag</c><c>   1</c></rc>
    <rc><c>Ag</c><c>   1</c></rc>
    <rc><c>Ag</c><c>   1</c></rc>
    <rc><c>Ag</c><c>   1</c></rc>
    <rc><c>Ag</c><c>   1</c></rc>
    <rc><c>Ag</c><c>   1</c></rc>
    <rc><c>Ag</c><c>   1</c></rc>
    <rc><c>Ag</c><c>   1</c></rc>
    <rc><c>Ag</c><c>   1</c></rc>
    <rc><c>Ag</c><c>   1</c></rc>
    <rc><c>Ag</c><c>   1</c></rc>
    <rc><c>Ag</c><c>   1</c></rc>
    <rc><c>Ag</c><c>   1</c></rc>
    <rc><c>Ag</c><c>   1</c></rc>
    <rc><c>Ag</c><c>   1</c></rc>
    <rc><c>Ag</c><c>   1</c></rc>
    <rc><c>Ag</c><c>   1</c></rc>
    <rc><c>Ag</c><c>   1</c></rc>
    <rc><c>Ag</c><c>   1</c></rc>
    <rc><c>Ag</c><c>   1</c></rc>
    <rc><c>Ag</c><c>   1</c></rc>
    <rc><c>Ag</c><c>   1</c></rc>
    <rc><c>Ag</c><c>   1</c></rc>
    <rc><c>Ag</c><c>   1</c></rc>
    <rc><c>Ag</c><c>   1</c></rc>
    <rc><c>Ag</c><c>   1</c></rc>
    <rc><c>Ag</c><c>   1</c></rc>
    <rc><c>Ag</c><c>   1</c></rc>
    <rc><c>Ag</c><c>   1</c></rc>
    <rc><c>Ag</c><c>   1</c></rc>
    <rc><c>Ag</c><c>   1</c></rc>
    <rc><c>Ag</c><c>   1</c></rc>
    <rc><c>Ag</c><c>   1</c></rc>
    <rc><c>Ag</c><c>   1</c></rc>
    <rc><c>Ag</c><c>   1</c></rc>
    <rc><c>Ag</c><c>   1</c></rc>
    <rc><c>Ag</c><c>   1</c></rc>
    <rc><c>Ag</c><c>   1</c></rc>
    <rc><c>Ag</c><c>   1</c></rc>
    <rc><c>Ag</c><c>   1</c></rc>
    <rc><c>Ag</c><c>   1</c></rc>
    <rc><c>Ag</c><c>   1</c></rc>
    <rc><c>Ag</c><c>   1</c></rc>
    <rc><c>Ag</c><c>   1</c></rc>
    <rc><c>Ag</c><c>   1</c></rc>
    <rc><c>Ag</c><c>   1</c></rc>
    <rc><c>Ag</c><c>   1</c></rc>
    <rc><c>Ag</c><c>   1</c></rc>
    <rc><c>Ag</c><c>   1</c></rc>
    <rc><c>Ag</c><c>   1</c></rc>
    <rc><c>Ag</c><c>   1</c></rc>
    <rc><c>Ag</c><c>   1</c></rc>
    <rc><c>Ag</c><c>   1</c></rc>
    <rc><c>Ag</c><c>   1</c></rc>
    <rc><c>Ag</c><c>   1</c></rc>
    <rc><c>Ag</c><c>   1</c></rc>
    <rc><c>Ag</c><c>   1</c></rc>
    <rc><c>Ag</c><c>   1</c></rc>
    <rc><c>Ag</c><c>   1</c></rc>
    <rc><c>Ag</c><c>   1</c></rc>
    <rc><c>Ag</c><c>   1</c></rc>
    <rc><c>Ag</c><c>   1</c></rc>
    <rc><c>Ag</c><c>   1</c></rc>
    <rc><c>Ag</c><c>   1</c></rc>
    <rc><c>Ag</c><c>   1</c></rc>
    <rc><c>Ag</c><c>   1</c></rc>
    <rc><c>Ag</c><c>   1</c></rc>
    <rc><c>Ag</c><c>   1</c></rc>
    <rc><c>Ag</c><c>   1</c></rc>
    <rc><c>Ag</c><c>   1</c></rc>
    <rc><c>Ag</c><c>   1</c></rc>
    <rc><c>Ag</c><c>   1</c></rc>
    <rc><c>Ag</c><c>   1</c></rc>
    <rc><c>Ag</c><c>   1</c></rc>
    <rc><c>Ag</c><c>   1</c></rc>
    <rc><c>Ag</c><c>   1</c></rc>
    <rc><c>Ag</c><c>   1</c></rc>
    <rc><c>Ag</c><c>   1</c></rc>
    <rc><c>Ag</c><c>   1</c></rc>
    <rc><c>Ag</c><c>   1</c></rc>
    <rc><c>Ag</c><c>   1</c></rc>
    <rc><c>Ag</c><c>   1</c></rc>
    <rc><c>Ag</c><c>   1</c></rc>
    <rc><c>Ag</c><c>   1</c></rc>
    <rc><c>Ag</c><c>   1</c></rc>
    <rc><c>Ag</c><c>   1</c></rc>
    <rc><c>Ag</c><c>   1</c></rc>
    <rc><c>Ag</c><c>   1</c></rc>
    <rc><c>Ag</c><c>   1</c></rc>
    <rc><c>Ag</c><c>   1</c></rc>
    <rc><c>Se</c><c>   2</c></rc>
    <rc><c>Se</c><c>   2</c></rc>
    <rc><c>Se</c><c>   2</c></rc>
    <rc><c>Se</c><c>   2</c></rc>
    <rc><c>Se</c><c>   2</c></rc>
    <rc><c>Se</c><c>   2</c></rc>
    <rc><c>Se</c><c>   2</c></rc>
    <rc><c>Se</c><c>   2</c></rc>
    <rc><c>Se</c><c>   2</c></rc>
    <rc><c>Se</c><c>   2</c></rc>
    <rc><c>Se</c><c>   2</c></rc>
    <rc><c>Se</c><c>   2</c></rc>
    <rc><c>Se</c><c>   2</c></rc>
    <rc><c>Se</c><c>   2</c></rc>
    <rc><c>Se</c><c>   2</c></rc>
    <rc><c>Se</c><c>   2</c></rc>
    <rc><c>Se</c><c>   2</c></rc>
    <rc><c>Se</c><c>   2</c></rc>
    <rc><c>Se</c><c>   2</c></rc>
    <rc><c>Se</c><c>   2</c></rc>
    <rc><c>Se</c><c>   2</c></rc>
    <rc><c>Se</c><c>   2</c></rc>
    <rc><c>Se</c><c>   2</c></rc>
    <rc><c>Se</c><c>   2</c></rc>
    <rc><c>Se</c><c>   2</c></rc>
    <rc><c>Se</c><c>   2</c></rc>
    <rc><c>Se</c><c>   2</c></rc>
    <rc><c>Se</c><c>   2</c></rc>
    <rc><c>Se</c><c>   2</c></rc>
    <rc><c>Se</c><c>   2</c></rc>
    <rc><c>Se</c><c>   2</c></rc>
    <rc><c>Se</c><c>   2</c></rc>
    <rc><c>Se</c><c>   2</c></rc>
    <rc><c>Se</c><c>   2</c></rc>
    <rc><c>Se</c><c>   2</c></rc>
    <rc><c>Se</c><c>   2</c></rc>
    <rc><c>Se</c><c>   2</c></rc>
    <rc><c>Se</c><c>   2</c></rc>
    <rc><c>Se</c><c>   2</c></rc>
    <rc><c>Se</c><c>   2</c></rc>
    <rc><c>Se</c><c>   2</c></rc>
    <rc><c>Se</c><c>   2</c></rc>
    <rc><c>Se</c><c>   2</c></rc>
    <rc><c>Se</c><c>   2</c></rc>
    <rc><c>Se</c><c>   2</c></rc>
    <rc><c>Se</c><c>   2</c></rc>
    <rc><c>Se</c><c>   2</c></rc>
    <rc><c>Se</c><c>   2</c></rc>
   </set>
  </array>
  <array name="atomtypes" >
   <dimension dim="1">type</dimension>
   <field type="int">atomspertype</field>
   <field type="string">element</field>
   <field>mass</field>
   <field>valence</field>
   <field type="string">pseudopotential</field>
   <set>
    <rc><c>  96</c><c>Ag</c><c>    107.86800000</c><c>     11.00000000</c><c>  PAW_PBE Ag 02Apr2005                  </c></rc>
    <rc><c>  48</c><c>Se</c><c>     78.96000000</c><c>      6.00000000</c><c>  PAW_PBE Se 06Sep2000                  </c></rc>
   </set>
  </array>
 </atominfo>
 <structure name="initialpos" >
  <crystal>
   <varray name="basis" >
    <v>      14.01039598       0.00139138       0.00000000 </v>
    <v>      -0.00150196      13.76691092       0.00000000 </v>
    <v>       0.00000000       0.00000000      14.55019386 </v>
   </varray>
   <i name="volume">   2806.43958022 </i>
   <varray name="rec_basis" >
    <v>       0.07137557       0.00000779       0.00000000 </v>
    <v>      -0.00000721       0.07263794       0.00000000 </v>
    <v>       0.00000000       0.00000000       0.06872761 </v>
   </varray>
  </crystal>
  <varray name="positions" >
   <v>       0.42987898       0.17167077       0.33247735 </v>
   <v>       0.92987898       0.17167077       0.33247735 </v>
   <v>       0.42987898       0.67167077       0.33247735 </v>
   <v>       0.92987898       0.67167077       0.33247735 </v>
   <v>       0.42987898       0.17167077       0.66581068 </v>
   <v>       0.92987898       0.17167077       0.66581068 </v>
   <v>       0.42987898       0.67167077       0.66581068 </v>
   <v>       0.92987898       0.67167077       0.66581068 </v>
   <v>       0.42987898       0.17167077       0.99914401 </v>
   <v>       0.92987898       0.17167077       0.99914401 </v>
   <v>       0.42987898       0.67167077       0.99914401 </v>
   <v>       0.92987898       0.67167077       0.99914401 </v>
   <v>       0.07012102       0.32832923       0.33247735 </v>
   <v>       0.57012102       0.32832923       0.33247735 </v>
   <v>       0.07012102       0.82832923       0.33247735 </v>
   <v>       0.57012102       0.82832923       0.33247735 </v>
   <v>       0.07012102       0.32832923       0.66581068 </v>
   <v>       0.57012102       0.32832923       0.66581068 </v>
   <v>       0.07012102       0.82832923       0.66581068 </v>
   <v>       0.57012102       0.82832923       0.66581068 </v>
   <v>       0.07012102       0.32832923       0.99914401 </v>
   <v>       0.57012102       0.32832923       0.99914401 </v>
   <v>       0.07012102       0.82832923       0.99914401 </v>
   <v>       0.57012102       0.82832923       0.99914401 </v>
   <v>       0.32012053       0.42167367       0.05641075 </v>
   <v>       0.82012053       0.42167367       0.05641075 </v>
   <v>       0.32012053       0.92167367       0.05641075 </v>
   <v>       0.82012053       0.92167367       0.05641075 </v>
   <v>       0.32012053       0.42167367       0.38974408 </v>
   <v>       0.82012053       0.42167367       0.38974408 </v>
   <v>       0.32012053       0.92167367       0.38974408 </v>
   <v>       0.82012053       0.92167367       0.38974408 </v>
   <v>       0.32012053       0.42167367       0.72307741 </v>
   <v>       0.82012053       0.42167367       0.72307741 </v>
   <v>       0.32012053       0.92167367       0.72307741 </v>
   <v>       0.82012053       0.92167367       0.72307741 </v>
   <v>       0.17987947       0.07832633       0.05641075 </v>
   <v>       0.67987947       0.07832633       0.05641075 </v>
   <v>       0.17987947       0.57832633       0.05641075 </v>
   <v>       0.67987947       0.57832633       0.05641075 </v>
   <v>       0.17987947       0.07832633       0.38974408 </v>
   <v>       0.67987947       0.07832633       0.38974408 </v>
   <v>       0.17987947       0.57832633       0.38974408 </v>
   <v>       0.67987947       0.57832633       0.38974408 </v>
   <v>       0.17987947       0.07832633       0.72307741 </v>
   <v>       0.67987947       0.07832633       0.72307741 </v>
   <v>       0.17987947       0.57832633       0.72307741 </v>
   <v>       0.67987947       0.57832633       0.72307741 </v>
   <v>       0.17987776       0.32832369       0.16580856 </v>
   <v>       0.67987776       0.32832369       0.16580856 </v>
   <v>       0.17987776       0.82832369       0.16580856 </v>
   <v>       0.67987776       0.82832369       0.16580856 </v>
   <v>       0.17987776       0.32832369       0.49914189 </v>
   <v>       0.67987776       0.32832369       0.49914189 </v>
   <v>       0.17987776       0.82832369       0.49914189 </v>
   <v>       0.67987776       0.82832369       0.49914189 </v>
   <v>       0.17987776       0.32832369       0.83247522 </v>
   <v>       0.67987776       0.32832369       0.83247522 </v>
   <v>       0.17987776       0.82832369       0.83247522 </v>
   <v>       0.67987776       0.82832369       0.83247522 </v>
   <v>       0.32012224       0.17167631       0.16580856 </v>
   <v>       0.82012224       0.17167631       0.16580856 </v>
   <v>       0.32012224       0.67167631       0.16580856 </v>
   <v>       0.82012224       0.67167631       0.16580856 </v>
   <v>       0.32012224       0.17167631       0.49914189 </v>
   <v>       0.82012224       0.17167631       0.49914189 </v>
   <v>       0.32012224       0.67167631       0.49914189 </v>
   <v>       0.82012224       0.67167631       0.49914189 </v>
   <v>       0.32012224       0.17167631       0.83247522 </v>
   <v>       0.82012224       0.17167631       0.83247522 </v>
   <v>       0.32012224       0.67167631       0.83247522 </v>
   <v>       0.82012224       0.67167631       0.83247522 </v>
   <v>       0.42916280       0.42167494       0.22308000 </v>
   <v>       0.92987656       0.42167494       0.22308000 </v>
   <v>       0.42987656       0.92167494       0.22308000 </v>
   <v>       0.92987656       0.92167494       0.22308000 </v>
   <v>       0.42987656       0.42167494       0.55641333 </v>
   <v>       0.92987656       0.42167494       0.55641333 </v>
   <v>       0.42987656       0.92167494       0.55641333 </v>
   <v>       0.92987656       0.92167494       0.55641333 </v>
   <v>       0.42987656       0.42167494       0.88974666 </v>
   <v>       0.92987656       0.42167494       0.88974666 </v>
   <v>       0.42987656       0.92167494       0.88974666 </v>
   <v>       0.92987656       0.92167494       0.88974666 </v>
   <v>       0.07012344       0.07832506       0.22308000 </v>
   <v>       0.57012344       0.07832506       0.22308000 </v>
   <v>       0.07012344       0.57832506       0.22308000 </v>
   <v>       0.57012344       0.57832506       0.22308000 </v>
   <v>       0.07012344       0.07832506       0.55641333 </v>
   <v>       0.57012344       0.07832506       0.55641333 </v>
   <v>       0.07012344       0.57832506       0.55641333 </v>
   <v>       0.57012344       0.57832506       0.55641333 </v>
   <v>       0.07012344       0.07832506       0.88974666 </v>
   <v>       0.57012344       0.07832506       0.88974666 </v>
   <v>       0.07012344       0.57832506       0.88974666 </v>
   <v>       0.57012344       0.57832506       0.88974666 </v>
   <v>       0.00000000       0.00000000       0.05479365 </v>
   <v>       0.50000000       0.00000000       0.05479365 </v>
   <v>       0.00000000       0.50000000       0.05479365 </v>
   <v>       0.50000000       0.50000000       0.05479365 </v>
   <v>       0.00000000       0.00000000       0.38812698 </v>
   <v>       0.50000000       0.00000000       0.38812698 </v>
   <v>       0.00000000       0.50000000       0.38812698 </v>
   <v>       0.50000000       0.50000000       0.38812698 </v>
   <v>       0.00000000       0.00000000       0.72146032 </v>
   <v>       0.50000000       0.00000000       0.72146032 </v>
   <v>       0.00000000       0.50000000       0.72146032 </v>
   <v>       0.50000000       0.50000000       0.72146032 </v>
   <v>       0.25000000       0.00000000       0.22145206 </v>
   <v>       0.75000000       0.00000000       0.22145206 </v>
   <v>       0.25000000       0.50000000       0.22145206 </v>
   <v>       0.75000000       0.50000000       0.22145206 </v>
   <v>       0.25000000       0.00000000       0.55478539 </v>
   <v>       0.75000000       0.00000000       0.55478539 </v>
   <v>       0.25000000       0.50000000       0.55478539 </v>
   <v>       0.75000000       0.50000000       0.55478539 </v>
   <v>       0.25000000       0.00000000       0.88811873 </v>
   <v>       0.75000000       0.00000000       0.88811873 </v>
   <v>       0.25000000       0.50000000       0.88811873 </v>
   <v>       0.75000000       0.50000000       0.88811873 </v>
   <v>       0.00000000       0.25000000       0.16743769 </v>
   <v>       0.50000000       0.25000000       0.16743769 </v>
   <v>       0.00000000       0.75000000       0.16743769 </v>
   <v>       0.50000000       0.75000000       0.16743769 </v>
   <v>       0.00000000       0.25000000       0.50077102 </v>
   <v>       0.50000000       0.25000000       0.50077102 </v>
   <v>       0.00000000       0.75000000       0.50077102 </v>
   <v>       0.50000000       0.75000000       0.50077102 </v>
   <v>       0.00000000       0.25000000       0.83410435 </v>
   <v>       0.50000000       0.25000000       0.83410435 </v>
   <v>       0.00000000       0.75000000       0.83410435 </v>
   <v>       0.50000000       0.75000000       0.83410435 </v>
   <v>       0.25000000       0.25000000       0.00076332 </v>
   <v>       0.75000000       0.25000000       0.00076332 </v>
   <v>       0.25000000       0.75000000       0.00076332 </v>
   <v>       0.75000000       0.75000000       0.00076332 </v>
   <v>       0.25000000       0.25000000       0.33409665 </v>
   <v>       0.75000000       0.25000000       0.33409665 </v>
   <v>       0.25000000       0.75000000       0.33409665 </v>
   <v>       0.75000000       0.75000000       0.33409665 </v>
   <v>       0.25000000       0.25000000       0.66742999 </v>
   <v>       0.75000000       0.25000000       0.66742999 </v>
   <v>       0.25000000       0.75000000       0.66742999 </v>
   <v>       0.75000000       0.75000000       0.66742999 </v>
  </varray>
 </structure>
 <calculation>
  <scstep>
   <time name="dav">  884.19  886.49</time>
   <time name="total">  887.60  889.92</time>
   <energy>
    <i name="alphaZ">   4890.97834259 </i>
    <i name="ewald"> -98843.35805375 </i>
    <i name="hartreedc"> -25788.93157366 </i>
    <i name="XCdc">   -889.86337382 </i>
    <i name="pawpsdc"> 106286.73805879 </i>
    <i name="pawaedc">-101298.59693205 </i>
    <i name="eentropy">     -0.04305056 </i>
    <i name="bandstr">  14366.17565648 </i>
    <i name="atom"> 111881.97810035 </i>
    <i name="e_fr_energy">  10605.07717436 </i>
    <i name="e_wo_entrp">  10605.12022492 </i>
    <i name="e_0_energy">  10605.09869964 </i>
   </energy>
  </scstep>
  <scstep>
   <time name="dav">  922.74  925.05</time>
   <time name="total">  922.75  925.06</time>
   <energy>
    <i name="e_fr_energy">    151.06706687 </i>
    <i name="e_wo_entrp">    151.07937689 </i>
    <i name="e_0_energy">    151.07322188 </i>
   </energy>
  </scstep>
  <scstep>
   <time name="dav">  968.91  971.47</time>
   <time name="total">  968.91  971.47</time>
   <energy>
    <i name="e_fr_energy">   -517.96788460 </i>
    <i name="e_wo_entrp">   -517.96175653 </i>
    <i name="e_0_energy">   -517.96482057 </i>
   </energy>
  </scstep>
  <scstep>
   <time name="dav">  945.59  948.06</time>
   <time name="total">  945.60  948.07</time>
   <energy>
    <i name="e_fr_energy">   -535.41761840 </i>
    <i name="e_wo_entrp">   -535.41215919 </i>
    <i name="e_0_energy">   -535.41488880 </i>
   </energy>
  </scstep>
  <scstep>
   <time name="dav">  954.89  957.46</time>
   <time name="total">  969.26  971.86</time>
   <energy>
    <i name="e_fr_energy">   -535.67087079 </i>
    <i name="e_wo_entrp">   -535.66540390 </i>
    <i name="e_0_energy">   -535.66813734 </i>
   </energy>
  </scstep>
  <scstep>
   <time name="dav">  918.69  920.97</time>
   <time name="total">  936.31  938.63</time>
   <energy>
    <i name="e_fr_energy">   -504.98310082 </i>
    <i name="e_wo_entrp">   -504.96762464 </i>
    <i name="e_0_energy">   -504.97536273 </i>
   </energy>
  </scstep>
  <scstep>
   <time name="dav">  914.26  916.56</time>
   <time name="total">  932.45  934.80</time>
   <energy>
    <i name="e_fr_energy">   -505.65759390 </i>
    <i name="e_wo_entrp">   -505.64184390 </i>
    <i name="e_0_energy">   -505.64971890 </i>
   </energy>
  </scstep>
  <scstep>
   <time name="dav">  929.99  932.46</time>
   <time name="total">  947.75  950.27</time>
   <energy>
    <i name="e_fr_energy">   -505.18195839 </i>
    <i name="e_wo_entrp">   -505.16735531 </i>
    <i name="e_0_energy">   -505.17465685 </i>
   </energy>
  </scstep>
  <scstep>
   <time name="dav">  920.15  922.52</time>
   <time name="total">  937.80  940.21</time>
   <energy>
    <i name="e_fr_energy">   -505.12628975 </i>
    <i name="e_wo_entrp">   -505.11107532 </i>
    <i name="e_0_energy">   -505.11868253 </i>
   </energy>
  </scstep>
  <scstep>
   <time name="dav">  921.54  923.69</time>
   <time name="total">  938.81  941.01</time>
   <energy>
    <i name="e_fr_energy">   -505.12841405 </i>
    <i name="e_wo_entrp">   -505.11314186 </i>
    <i name="e_0_energy">   -505.12077796 </i>
   </energy>
  </scstep>
  <scstep>
   <time name="dav">  927.50  929.76</time>
   <time name="total">  945.71  948.02</time>
   <energy>
    <i name="e_fr_energy">   -505.12829083 </i>
    <i name="e_wo_entrp">   -505.11308680 </i>
    <i name="e_0_energy">   -505.12068881 </i>
   </energy>
  </scstep>
  <scstep>
   <time name="dav">  931.00  933.38</time>
   <time name="total">  948.72  951.15</time>
   <energy>
    <i name="e_fr_energy">   -505.12824848 </i>
    <i name="e_wo_entrp">   -505.11302413 </i>
    <i name="e_0_energy">   -505.12063630 </i>
   </energy>
  </scstep>
  <scstep>
   <time name="dav">  974.29  976.83</time>
   <time name="total">  993.50  996.09</time>
   <energy>
    <i name="e_fr_energy">   -505.12824846 </i>
    <i name="e_wo_entrp">   -505.11302709 </i>
    <i name="e_0_energy">   -505.12063777 </i>
   </energy>
  </scstep>
  <scstep>
   <time name="dav">  928.29  930.73</time>
   <time name="total">  947.47  949.96</time>
   <energy>
    <i name="e_fr_energy">   -505.12824732 </i>
    <i name="e_wo_entrp">   -505.11302702 </i>
    <i name="e_0_energy">   -505.12063717 </i>
   </energy>
  </scstep>
  <scstep>
   <time name="dav">  954.53  956.89</time>
   <time name="total">  972.94  975.34</time>
   <energy>
    <i name="e_fr_energy">   -505.12824581 </i>
    <i name="e_wo_entrp">   -505.11302574 </i>
    <i name="e_0_energy">   -505.12063577 </i>
   </energy>
  </scstep>
  <scstep>
   <time name="dav">  878.33  880.51</time>
   <time name="total">  896.75  899.00</time>
   <energy>
    <i name="e_fr_energy">   -505.12824584 </i>
    <i name="e_wo_entrp">   -505.11302594 </i>
    <i name="e_0_energy">   -505.12063589 </i>
   </energy>
  </scstep>
  <scstep>
   <time name="dav">  581.72  583.19</time>
   <time name="total">  600.45  601.97</time>
   <energy>
    <i name="e_fr_energy">   -505.12824585 </i>
    <i name="e_wo_entrp">   -505.11302589 </i>
    <i name="e_0_energy">   -505.12063587 </i>
   </energy>
  </scstep>
  <scstep>
   <time name="dav">  570.78  572.25</time>
   <time name="total">  590.23  591.75</time>
   <energy>
    <i name="e_fr_energy">   -505.12824584 </i>
    <i name="e_wo_entrp">   -505.11302584 </i>
    <i name="e_0_energy">   -505.12063584 </i>
   </energy>
  </scstep>
  <scstep>
   <time name="dav">  562.14  563.60</time>
   <time name="total">  565.55  567.02</time>
   <energy>
    <i name="alphaZ">   4890.97834259 </i>
    <i name="ewald"> -98843.35805375 </i>
    <i name="hartreedc"> -24657.76355230 </i>
    <i name="XCdc">   -922.44974874 </i>
    <i name="pawpsdc"> 122252.44314018 </i>
    <i name="pawaedc">-117444.69888903 </i>
    <i name="eentropy">     -0.01522000 </i>
    <i name="bandstr">   2337.75763487 </i>
    <i name="atom"> 111881.97810035 </i>
    <i name="e_fr_energy">   -505.12824583 </i>
    <i name="e_wo_entrp">   -505.11302583 </i>
    <i name="e_0_energy">   -505.12063583 </i>
   </energy>
  </scstep>
  <structure>
   <crystal>
    <varray name="basis" >
     <v>      14.01039598       0.00139138       0.00000000 </v>
     <v>      -0.00150196      13.76691092       0.00000000 </v>
     <v>       0.00000000       0.00000000      14.55019386 </v>
    </varray>
    <i name="volume">   2806.43958022 </i>
    <varray name="rec_basis" >
     <v>       0.07137557       0.00000779       0.00000000 </v>
     <v>      -0.00000721       0.07263794       0.00000000 </v>
     <v>       0.00000000       0.00000000       0.06872761 </v>
    </varray>
   </crystal>
   <varray name="positions" >
    <v>       0.42987898       0.17167077       0.33247735 </v>
    <v>       0.92987898       0.17167077       0.33247735 </v>
    <v>       0.42987898       0.67167077       0.33247735 </v>
    <v>       0.92987898       0.67167077       0.33247735 </v>
    <v>       0.42987898       0.17167077       0.66581068 </v>
    <v>       0.92987898       0.17167077       0.66581068 </v>
    <v>       0.42987898       0.67167077       0.66581068 </v>
    <v>       0.92987898       0.67167077       0.66581068 </v>
    <v>       0.42987898       0.17167077       0.99914401 </v>
    <v>       0.92987898       0.17167077       0.99914401 </v>
    <v>       0.42987898       0.67167077       0.99914401 </v>
    <v>       0.92987898       0.67167077       0.99914401 </v>
    <v>       0.07012102       0.32832923       0.33247735 </v>
    <v>       0.57012102       0.32832923       0.33247735 </v>
    <v>       0.07012102       0.82832923       0.33247735 </v>
    <v>       0.57012102       0.82832923       0.33247735 </v>
    <v>       0.07012102       0.32832923       0.66581068 </v>
    <v>       0.57012102       0.32832923       0.66581068 </v>
    <v>       0.07012102       0.82832923       0.66581068 </v>
    <v>       0.57012102       0.82832923       0.66581068 </v>
    <v>       0.07012102       0.32832923       0.99914401 </v>
    <v>       0.57012102       0.32832923       0.99914401 </v>
    <v>       0.07012102       0.82832923       0.99914401 </v>
    <v>       0.57012102       0.82832923       0.99914401 </v>
    <v>       0.32012053       0.42167367       0.05641075 </v>
    <v>       0.82012053       0.42167367       0.05641075 </v>
    <v>       0.32012053       0.92167367       0.05641075 </v>
    <v>       0.82012053       0.92167367       0.05641075 </v>
    <v>       0.32012053       0.42167367       0.38974408 </v>
    <v>       0.82012053       0.42167367       0.38974408 </v>
    <v>       0.32012053       0.92167367       0.38974408 </v>
    <v>       0.82012053       0.92167367       0.38974408 </v>
    <v>       0.32012053       0.42167367       0.72307741 </v>
    <v>       0.82012053       0.42167367       0.72307741 </v>
    <v>       0.32012053       0.92167367       0.72307741 </v>
    <v>       0.82012053       0.92167367       0.72307741 </v>
    <v>       0.17987947       0.07832633       0.05641075 </v>
    <v>       0.67987947       0.07832633       0.05641075 </v>
    <v>       0.17987947       0.57832633       0.05641075 </v>
    <v>       0.67987947       0.57832633       0.05641075 </v>
    <v>       0.17987947       0.07832633       0.38974408 </v>
    <v>       0.67987947       0.07832633       0.38974408 </v>
    <v>       0.17987947       0.57832633       0.38974408 </v>
    <v>       0.67987947       0.57832633       0.38974408 </v>
    <v>       0.17987947       0.07832633       0.72307741 </v>
    <v>       0.67987947       0.07832633       0.72307741 </v>
    <v>       0.17987947       0.57832633       0.72307741 </v>
    <v>       0.67987947       0.57832633       0.72307741 </v>
    <v>       0.17987776       0.32832369       0.16580856 </v>
    <v>       0.67987776       0.32832369       0.16580856 </v>
    <v>       0.17987776       0.82832369       0.16580856 </v>
    <v>       0.67987776       0.82832369       0.16580856 </v>
    <v>       0.17987776       0.32832369       0.49914189 </v>
    <v>       0.67987776       0.32832369       0.49914189 </v>
    <v>       0.17987776       0.82832369       0.49914189 </v>
    <v>       0.67987776       0.82832369       0.49914189 </v>
    <v>       0.17987776       0.32832369       0.83247522 </v>
    <v>       0.67987776       0.32832369       0.83247522 </v>
    <v>       0.17987776       0.82832369       0.83247522 </v>
    <v>       0.67987776       0.82832369       0.83247522 </v>
    <v>       0.32012224       0.17167631       0.16580856 </v>
    <v>       0.82012224       0.17167631       0.16580856 </v>
    <v>       0.32012224       0.67167631       0.16580856 </v>
    <v>       0.82012224       0.67167631       0.16580856 </v>
    <v>       0.32012224       0.17167631       0.49914189 </v>
    <v>       0.82012224       0.17167631       0.49914189 </v>
    <v>       0.32012224       0.67167631       0.49914189 </v>
    <v>       0.82012224       0.67167631       0.49914189 </v>
    <v>       0.32012224       0.17167631       0.83247522 </v>
    <v>       0.82012224       0.17167631       0.83247522 </v>
    <v>       0.32012224       0.67167631       0.83247522 </v>
    <v>       0.82012224       0.67167631       0.83247522 </v>
    <v>       0.42916280       0.42167494       0.22308000 </v>
    <v>       0.92987656       0.42167494       0.22308000 </v>
    <v>       0.42987656       0.92167494       0.22308000 </v>
    <v>       0.92987656       0.92167494       0.22308000 </v>
    <v>       0.42987656       0.42167494       0.55641333 </v>
    <v>       0.92987656       0.42167494       0.55641333 </v>
    <v>       0.42987656       0.92167494       0.55641333 </v>
    <v>       0.92987656       0.92167494       0.55641333 </v>
    <v>       0.42987656       0.42167494       0.88974666 </v>
    <v>       0.92987656       0.42167494       0.88974666 </v>
    <v>       0.42987656       0.92167494       0.88974666 </v>
    <v>       0.92987656       0.92167494       0.88974666 </v>
    <v>       0.07012344       0.07832506       0.22308000 </v>
    <v>       0.57012344       0.07832506       0.22308000 </v>
    <v>       0.07012344       0.57832506       0.22308000 </v>
    <v>       0.57012344       0.57832506       0.22308000 </v>
    <v>       0.07012344       0.07832506       0.55641333 </v>
    <v>       0.57012344       0.07832506       0.55641333 </v>
    <v>       0.07012344       0.57832506       0.55641333 </v>
    <v>       0.57012344       0.57832506       0.55641333 </v>
    <v>       0.07012344       0.07832506       0.88974666 </v>
    <v>       0.57012344       0.07832506       0.88974666 </v>
    <v>       0.07012344       0.57832506       0.88974666 </v>
    <v>       0.57012344       0.57832506       0.88974666 </v>
    <v>       0.00000000       0.00000000       0.05479365 </v>
    <v>       0.50000000       0.00000000       0.05479365 </v>
    <v>       0.00000000       0.50000000       0.05479365 </v>
    <v>       0.50000000       0.50000000       0.05479365 </v>
    <v>       0.00000000       0.00000000       0.38812698 </v>
    <v>       0.50000000       0.00000000       0.38812698 </v>
    <v>       0.00000000       0.50000000       0.38812698 </v>
    <v>       0.50000000       0.50000000       0.38812698 </v>
    <v>       0.00000000       0.00000000       0.72146032 </v>
    <v>       0.50000000       0.00000000       0.72146032 </v>
    <v>       0.00000000       0.50000000       0.72146032 </v>
    <v>       0.50000000       0.50000000       0.72146032 </v>
    <v>       0.25000000       0.00000000       0.22145206 </v>
    <v>       0.75000000       0.00000000       0.22145206 </v>
    <v>       0.25000000       0.50000000       0.22145206 </v>
    <v>       0.75000000       0.50000000       0.22145206 </v>
    <v>       0.25000000       0.00000000       0.55478539 </v>
    <v>       0.75000000       0.00000000       0.55478539 </v>
    <v>       0.25000000       0.50000000       0.55478539 </v>
    <v>       0.75000000       0.50000000       0.55478539 </v>
    <v>       0.25000000       0.00000000       0.88811873 </v>
    <v>       0.75000000       0.00000000       0.88811873 </v>
    <v>       0.25000000       0.50000000       0.88811873 </v>
    <v>       0.75000000       0.50000000       0.88811873 </v>
    <v>       0.00000000       0.25000000       0.16743769 </v>
    <v>       0.50000000       0.25000000       0.16743769 </v>
    <v>       0.00000000       0.75000000       0.16743769 </v>
    <v>       0.50000000       0.75000000       0.16743769 </v>
    <v>       0.00000000       0.25000000       0.50077102 </v>
    <v>       0.50000000       0.25000000       0.50077102 </v>
    <v>       0.00000000       0.75000000       0.50077102 </v>
    <v>       0.50000000       0.75000000       0.50077102 </v>
    <v>       0.00000000       0.25000000       0.83410435 </v>
    <v>       0.50000000       0.25000000       0.83410435 </v>
    <v>       0.00000000       0.75000000       0.83410435 </v>
    <v>       0.50000000       0.75000000       0.83410435 </v>
    <v>       0.25000000       0.25000000       0.00076332 </v>
    <v>       0.75000000       0.25000000       0.00076332 </v>
    <v>       0.25000000       0.75000000       0.00076332 </v>
    <v>       0.75000000       0.75000000       0.00076332 </v>
    <v>       0.25000000       0.25000000       0.33409665 </v>
    <v>       0.75000000       0.25000000       0.33409665 </v>
    <v>       0.25000000       0.75000000       0.33409665 </v>
    <v>       0.75000000       0.75000000       0.33409665 </v>
    <v>       0.25000000       0.25000000       0.66742999 </v>
    <v>       0.75000000       0.25000000       0.66742999 </v>
    <v>       0.25000000       0.75000000       0.66742999 </v>
    <v>       0.75000000       0.75000000       0.66742999 </v>
   </varray>
  </structure>
  <varray name="forces" >
   <v>       0.00043211       0.00020658      -0.00015518 </v>
   <v>      -0.00016518       0.00008224      -0.00001305 </v>
   <v>       0.00043204      -0.00014510       0.00000737 </v>
   <v>      -0.00016490       0.00020165       0.00005989 </v>
   <v>       0.00000777       0.00008549      -0.00007039 </v>
   <v>      -0.00006946       0.00006338      -0.00004948 </v>
   <v>       0.00000806       0.00004818      -0.00001620 </v>
   <v>      -0.00006954       0.00006726      -0.00004908 </v>
   <v>       0.00008849       0.00016240       0.00010486 </v>
   <v>      -0.00011151       0.00005041      -0.00005331 </v>
   <v>       0.00008834      -0.00029269       0.00001404 </v>
   <v>      -0.00011205       0.00013686      -0.00004853 </v>
   <v>      -0.00000786      -0.00016506      -0.00002788 </v>
   <v>      -0.00806295       0.00554668      -0.00684312 </v>
   <v>      -0.00008440       0.00001723      -0.00000305 </v>
   <v>       0.00003063      -0.00008025      -0.00004514 </v>
   <v>      -0.00001082      -0.00006358      -0.00001382 </v>
   <v>      -0.00001828      -0.00003699      -0.00005251 </v>
   <v>      -0.00001599      -0.00006374      -0.00002720 </v>
   <v>       0.00000852      -0.00008492      -0.00003091 </v>
   <v>      -0.00009771      -0.00012711      -0.00011135 </v>
   <v>      -0.00056351       0.00042360       0.00080694 </v>
   <v>      -0.00004562      -0.00005813      -0.00005862 </v>
   <v>      -0.00008750      -0.00003682      -0.00004051 </v>
   <v>      -0.00240685      -0.00057754      -0.00786892 </v>
   <v>      -0.00021909       0.00001068       0.00014974 </v>
   <v>       0.00008360       0.00007652       0.00005736 </v>
   <v>      -0.00002482       0.00001984       0.00005228 </v>
   <v>      -0.00240849      -0.00036660       0.00798825 </v>
   <v>      -0.00021915      -0.00003339       0.00001740 </v>
   <v>       0.00008407       0.00016419       0.00010401 </v>
   <v>      -0.00002486       0.00000265       0.00004295 </v>
   <v>       0.00016531      -0.00004091       0.00006400 </v>
   <v>      -0.00005644       0.00004092       0.00005934 </v>
   <v>       0.00005520       0.00001947       0.00006322 </v>
   <v>      -0.00001165       0.00000963       0.00004757 </v>
   <v>      -0.00005520      -0.00005325       0.00003282 </v>
   <v>      -0.00006502       0.00003620       0.00006768 </v>
   <v>      -0.00046395       0.00031775      -0.00081252 </v>
   <v>      -0.00042472      -0.00009833       0.00022436 </v>
   <v>      -0.00006536      -0.00010687       0.00008478 </v>
   <v>      -0.00005515       0.00003221       0.00003919 </v>
   <v>      -0.00042667       0.00039306       0.00056925 </v>
   <v>      -0.00046148      -0.00003816      -0.00006909 </v>
   <v>      -0.00004303      -0.00000369       0.00005459 </v>
   <v>      -0.00004279      -0.00002323       0.00005163 </v>
   <v>      -0.00015531       0.00009154       0.00003542 </v>
   <v>      -0.00015427      -0.00001165       0.00004417 </v>
   <v>      -0.00053885      -0.00100270      -0.00027779 </v>
   <v>      -0.00053800      -0.00005847       0.00008660 </v>
   <v>      -0.00001466       0.00006418      -0.00003748 </v>
   <v>      -0.00001439      -0.00002202       0.00000179 </v>
   <v>      -0.00003798      -0.00003200      -0.00001729 </v>
   <v>      -0.00003685      -0.00000319      -0.00006084 </v>
   <v>      -0.00005105       0.00003420       0.00003823 </v>
   <v>      -0.00005097      -0.00000861      -0.00001899 </v>
   <v>      -0.00005153      -0.00001578      -0.00004272 </v>
   <v>      -0.00005148      -0.00000463      -0.00000109 </v>
   <v>      -0.00005729       0.00004598      -0.00005035 </v>
   <v>      -0.00005700       0.00001183      -0.00003974 </v>
   <v>       0.00014365      -0.00010937      -0.00004967 </v>
   <v>      -0.00011492       0.00005235       0.00000496 </v>
   <v>       0.00014388       0.00088584      -0.00035169 </v>
   <v>      -0.00011467      -0.00002100      -0.00005109 </v>
   <v>       0.00009899      -0.00001885       0.00005398 </v>
   <v>      -0.00005892       0.00003254      -0.00005055 </v>
   <v>       0.00010000       0.00001505       0.00000121 </v>
   <v>      -0.00005903      -0.00002515       0.00000089 </v>
   <v>       0.00004422       0.00001032      -0.00002361 </v>
   <v>      -0.00005207       0.00003313       0.00001312 </v>
   <v>       0.00004426       0.00003247      -0.00009055 </v>
   <v>      -0.00005234      -0.00003191      -0.00001286 </v>
   <v>       0.03317906      -0.01110157       0.00188046 </v>
   <v>      -0.00018766      -0.00005062       0.00001110 </v>
   <v>       0.00004167      -0.00003337      -0.00004125 </v>
   <v>      -0.00002351       0.00007261       0.00003885 </v>
   <v>       0.00038407       0.00034059      -0.00015341 </v>
   <v>      -0.00014321      -0.00004426       0.00012122 </v>
   <v>       0.00004666      -0.00007658      -0.00002482 </v>
   <v>      -0.00001199       0.00001249       0.00003247 </v>
   <v>       0.00038394       0.00031784       0.00014418 </v>
   <v>      -0.00014318      -0.00003126      -0.00012243 </v>
   <v>       0.00004647      -0.00003010       0.00002831 </v>
   <v>      -0.00001195       0.00000556       0.00001082 </v>
   <v>      -0.00003386      -0.00003302       0.00005595 </v>
   <v>      -0.00028203       0.00033632      -0.00014632 </v>
   <v>      -0.00249409       0.00058509       0.00013240 </v>
   <v>      -0.00481507      -0.00591791       0.00025509 </v>
   <v>      -0.00002630      -0.00002376       0.00002870 </v>
   <v>      -0.00000007       0.00000568       0.00002540 </v>
   <v>      -0.00010140       0.00000118       0.00010531 </v>
   <v>      -0.00051367      -0.00055945      -0.00071910 </v>
   <v>      -0.00002618      -0.00002190       0.00002961 </v>
   <v>       0.00000006      -0.00005057       0.00001741 </v>
   <v>      -0.00010135      -0.00000954      -0.00008225 </v>
   <v>      -0.00051278      -0.00049648       0.00068516 </v>
   <v>       0.00000078       0.00004098      -0.00006794 </v>
   <v>       0.00000112      -0.00026197      -0.00030231 </v>
   <v>       0.00086174       0.00029777       0.00026378 </v>
   <v>       0.00051486      -0.00044501       0.00153292 </v>
   <v>       0.00005343       0.00001315      -0.00011407 </v>
   <v>       0.00001049       0.00001548      -0.00011195 </v>
   <v>       0.00077922       0.00039736      -0.00045163 </v>
   <v>       0.00152844      -0.00221631      -0.00205450 </v>
   <v>       0.00000239       0.00005125      -0.00009669 </v>
   <v>      -0.00005020       0.00006496      -0.00006332 </v>
   <v>       0.00021636       0.00010326      -0.00007903 </v>
   <v>       0.00011452       0.00010079      -0.00010475 </v>
   <v>      -0.00001979      -0.00008018       0.00009527 </v>
   <v>      -0.00000110      -0.00006100      -0.00001644 </v>
   <v>      -0.01171088       0.00599232       0.00065811 </v>
   <v>      -0.00018514      -0.00033282      -0.00002257 </v>
   <v>       0.00001611      -0.00004384      -0.00007153 </v>
   <v>       0.00006040      -0.00004357       0.00002287 </v>
   <v>       0.00006114      -0.00017174      -0.00037748 </v>
   <v>       0.00043947      -0.00019178      -0.00000179 </v>
   <v>       0.00003057      -0.00008276       0.00008194 </v>
   <v>       0.00002992      -0.00004266       0.00001289 </v>
   <v>       0.00000877      -0.00020273       0.00039615 </v>
   <v>       0.00046919      -0.00013189      -0.00003098 </v>
   <v>       0.00016364       0.00008334      -0.00003921 </v>
   <v>      -0.00121992       0.00968205       0.00453084 </v>
   <v>       0.00030483      -0.00002306      -0.00011224 </v>
   <v>      -0.00008335       0.00001185       0.00011171 </v>
   <v>       0.00004848       0.00012229      -0.00000212 </v>
   <v>      -0.00017049      -0.00005032      -0.00004254 </v>
   <v>       0.00008113       0.00004895      -0.00007216 </v>
   <v>      -0.00012998       0.00041419       0.00006096 </v>
   <v>       0.00011314       0.00007348       0.00005535 </v>
   <v>      -0.00002466       0.00001898       0.00010847 </v>
   <v>       0.00009872       0.00005066      -0.00001003 </v>
   <v>       0.00010337       0.00014994      -0.00017071 </v>
   <v>      -0.00008296      -0.00029968      -0.00025487 </v>
   <v>       0.00016389      -0.00008381       0.00002767 </v>
   <v>       0.00010289      -0.00019251       0.00027019 </v>
   <v>       0.00010952       0.00000002       0.00013020 </v>
   <v>      -0.00054278      -0.00056928       0.00035414 </v>
   <v>       0.00020845      -0.00013780       0.00000657 </v>
   <v>      -0.00003818      -0.00060300      -0.00018120 </v>
   <v>       0.00010005      -0.00002213       0.00010428 </v>
   <v>      -0.00001344      -0.00004985       0.00010786 </v>
   <v>       0.00003750      -0.00007292       0.00004215 </v>
   <v>       0.00005009      -0.00012416       0.00008439 </v>
   <v>       0.00009910      -0.00005613       0.00007277 </v>
  </varray>
  <varray name="stress" >
   <v>      -0.15460684      -0.00546541      -0.00453469 </v>
   <v>      -0.00546534      -0.17389934      -0.00133440 </v>
   <v>      -0.00453477      -0.00133424      -0.15380114 </v>
  </varray>
  <energy>
   <i name="e_fr_energy">   -505.12824583 </i>
   <i name="e_wo_entrp">   -505.12063583 </i>
   <i name="e_0_energy">     -0.01522000 </i>
  </energy>
  <time name="totalsc">18717.3618765.63</time>
  <eigenvalues>
   <array>
    <dimension dim="1">band</dimension>
    <dimension dim="2">kpoint</dimension>
    <dimension dim="3">spin</dimension>
    <field>eigene</field>
    <field>occ</field>
    <set>
     <set comment="spin 1">
      <set comment="kpoint 1">
       <r>   -7.4639    1.0000 </r>
       <r>   -7.2297    1.0000 </r>
       <r>   -7.2294    1.0000 </r>
       <r>   -7.2160    1.0000 </r>
       <r>   -7.2153    1.0000 </r>
       <r>   -7.1644    1.0000 </r>
       <r>   -7.1642    1.0000 </r>
       <r>   -7.0701    1.0000 </r>
       <r>   -7.0695    1.0000 </r>
       <r>   -7.0693    1.0000 </r>
       <r>   -7.0691    1.0000 </r>
       <r>   -7.0095    1.0000 </r>
       <r>   -7.0091    1.0000 </r>
       <r>   -7.0089    1.0000 </r>
       <r>   -7.0089    1.0000 </r>
       <r>   -6.9944    1.0000 </r>
       <r>   -6.9939    1.0000 </r>
       <r>   -6.9936    1.0000 </r>
       <r>   -6.9935    1.0000 </r>
       <r>   -6.9476    1.0000 </r>
       <r>   -6.9353    1.0000 </r>
       <r>   -6.9349    1.0000 </r>
       <r>   -6.9201    1.0000 </r>
       <r>   -6.9191    1.0000 </r>
       <r>   -6.9191    1.0000 </r>
       <r>   -6.9191    1.0000 </r>
       <r>   -6.9190    1.0000 </r>
       <r>   -6.9189    1.0000 </r>
       <r>   -6.9186    1.0000 </r>
       <r>   -6.9186    1.0000 </r>
       <r>   -6.8371    1.0000 </r>
       <r>   -6.8366    1.0000 </r>
       <r>   -6.8364    1.0000 </r>
       <r>   -6.8364    1.0000 </r>
       <r>   -6.8238    1.0000 </r>
       <r>   -6.8181    1.0000 </r>
       <r>   -6.8179    1.0000 </r>
       <r>   -6.7728    1.0000 </r>
       <r>   -6.7725    1.0000 </r>
       <r>   -6.7674    1.0000 </r>
       <r>   -6.7669    1.0000 </r>
       <r>   -6.7667    1.0000 </r>
       <r>   -6.7665    1.0000 </r>
       <r>   -6.7550    1.0000 </r>
       <r>   -6.7544    1.0000 </r>
       <r>   -6.7402    1.0000 </r>
       <r>   -6.7397    1.0000 </r>
       <r>   -6.6844    1.0000 </r>
       <r>   -0.3462    1.0000 </r>
       <r>    0.0939    1.0000 </r>
       <r>    0.0940    1.0000 </r>
       <r>    0.0942    1.0000 </r>
       <r>    0.0943    1.0000 </r>
       <r>    0.0943    1.0000 </r>
       <r>    0.0944    1.0000 </r>
       <r>    0.0945    1.0000 </r>
       <r>    0.0946    1.0000 </r>
       <r>    0.1077    1.0000 </r>
       <r>    0.1078    1.0000 </r>
       <r>    0.1079    1.0000 </r>
       <r>    0.1079    1.0000 </r>
       <r>    0.1516    1.0000 </r>
       <r>    0.1522    1.0000 </r>
       <r>    0.1524    1.0000 </r>
       <r>    0.1525    1.0000 </r>
       <r>    0.1578    1.0000 </r>
       <r>    0.1583    1.0000 </r>
       <r>    0.1593    1.0000 </r>
       <r>    0.1600    1.0000 </r>
       <r>    0.2007    1.0000 </r>
       <r>    0.2009    1.0000 </r>
       <r>    0.2011    1.0000 </r>
       <r>    0.2012    1.0000 </r>
       <r>    0.2364    1.0000 </r>
       <r>    0.2368    1.0000 </r>
       <r>    0.2566    1.0000 </r>
       <r>    0.2569    1.0000 </r>
       <r>    0.2819    1.0000 </r>
       <r>    0.3007    1.0000 </r>
       <r>    0.3010    1.0000 </r>
       <r>    0.3228    1.0000 </r>
       <r>    0.4470    1.0000 </r>
       <r>    0.4474    1.0000 </r>
       <r>    0.4507    1.0000 </r>
       <r>    0.4510    1.0000 </r>
       <r>    0.4571    1.0000 </r>
       <r>    0.4574    1.0000 </r>
       <r>    0.4652    1.0000 </r>
       <r>    0.4656    1.0000 </r>
       <r>    0.4658    1.0000 </r>
       <r>    0.4662    1.0000 </r>
       <r>    0.4699    1.0000 </r>
       <r>    0.4699    1.0000 </r>
       <r>    0.4702    1.0000 </r>
       <r>    0.4706    1.0000 </r>
       <r>    0.5111    1.0000 </r>
       <r>    0.5115    1.0000 </r>
       <r>    0.5258    1.0000 </r>
       <r>    0.5263    1.0000 </r>
       <r>    0.5265    1.0000 </r>
       <r>    0.5267    1.0000 </r>
       <r>    0.5973    1.0000 </r>
       <r>    0.6018    1.0000 </r>
       <r>    0.6548    1.0000 </r>
       <r>    0.6549    1.0000 </r>
       <r>    0.6551    1.0000 </r>
       <r>    0.6552    1.0000 </r>
       <r>    0.6616    1.0000 </r>
       <r>    0.6619    1.0000 </r>
       <r>    0.6879    1.0000 </r>
       <r>    0.6880    1.0000 </r>
       <r>    0.7014    1.0000 </r>
       <r>    0.7019    1.0000 </r>
       <r>    0.7019    1.0000 </r>
       <r>    0.7022    1.0000 </r>
       <r>    0.7205    1.0000 </r>
       <r>    0.7212    1.0000 </r>
       <r>    0.7410    1.0000 </r>
       <r>    0.7413    1.0000 </r>
       <r>    0.7485    1.0000 </r>
       <r>    0.8022    1.0000 </r>
       <r>    0.8140    1.0000 </r>
       <r>    0.8142    1.0000 </r>
       <r>    0.8145    1.0000 </r>
       <r>    0.8147    1.0000 </r>
       <r>    0.8301    1.0000 </r>
       <r>    0.8303    1.0000 </r>
       <r>    0.8307    1.0000 </r>
       <r>    0.8310    1.0000 </r>
       <r>    0.8514    1.0000 </r>
       <r>    0.8517    1.0000 </r>
       <r>    0.8520    1.0000 </r>
       <r>    0.8521    1.0000 </r>
       <r>    0.8522    1.0000 </r>
       <r>    0.8522    1.0000 </r>
       <r>    0.8523    1.0000 </r>
       <r>    0.8527    1.0000 </r>
       <r>    0.8952    1.0000 </r>
       <r>    0.8977    1.0000 </r>
       <r>    0.8981    1.0000 </r>
       <r>    0.8991    1.0000 </r>
       <r>    0.8994    1.0000 </r>
       <r>    0.8995    1.0000 </r>
       <r>    0.8995    1.0000 </r>
       <r>    0.9206    1.0000 </r>
       <r>    0.9458    1.0000 </r>
       <r>    0.9463    1.0000 </r>
       <r>    1.0706    1.0000 </r>
       <r>    1.0708    1.0000 </r>
       <r>    1.0709    1.0000 </r>
       <r>    1.0711    1.0000 </r>
       <r>    1.0842    1.0000 </r>
       <r>    1.0846    1.0000 </r>
       <r>    1.0848    1.0000 </r>
       <r>    1.0849    1.0000 </r>
       <r>    1.0851    1.0000 </r>
       <r>    1.0853    1.0000 </r>
       <r>    1.1009    1.0000 </r>
       <r>    1.1010    1.0000 </r>
       <r>    1.1457    1.0000 </r>
       <r>    1.1459    1.0000 </r>
       <r>    1.1460    1.0000 </r>
       <r>    1.1461    1.0000 </r>
       <r>    1.1616    1.0000 </r>
       <r>    1.1618    1.0000 </r>
       <r>    1.1620    1.0000 </r>
       <r>    1.1622    1.0000 </r>
       <r>    1.1755    1.0000 </r>
       <r>    1.1760    1.0000 </r>
       <r>    1.1996    1.0000 </r>
       <r>    1.2241    1.0000 </r>
       <r>    1.2243    1.0000 </r>
       <r>    1.2295    1.0000 </r>
       <r>    1.2298    1.0000 </r>
       <r>    1.2299    1.0000 </r>
       <r>    1.2299    1.0000 </r>
       <r>    1.2300    1.0000 </r>
       <r>    1.2300    1.0000 </r>
       <r>    1.2301    1.0000 </r>
       <r>    1.2302    1.0000 </r>
       <r>    1.2372    1.0000 </r>
       <r>    1.2372    1.0000 </r>
       <r>    1.3414    1.0000 </r>
       <r>    1.3416    1.0000 </r>
       <r>    1.3416    1.0000 </r>
       <r>    1.3419    1.0000 </r>
       <r>    1.3653    1.0000 </r>
       <r>    1.3665    1.0000 </r>
       <r>    1.3665    1.0000 </r>
       <r>    1.3672    1.0000 </r>
       <r>    1.3673    1.0000 </r>
       <r>    1.3734    1.0000 </r>
       <r>    1.3735    1.0000 </r>
       <r>    1.3736    1.0000 </r>
       <r>    1.3737    1.0000 </r>
[...]
       <r>    -1.7772     0.0000    96.0000 </r>
       <r>    -1.7055     0.0000    96.0000 </r>
       <r>    -1.6339     0.0000    96.0000 </r>
       <r>    -1.5622     0.0000    96.0000 </r>
       <r>    -1.4906     0.0000    96.0000 </r>
       <r>    -1.4189     0.0000    96.0000 </r>
       <r>    -1.3473     0.0000    96.0000 </r>
       <r>    -1.2756     0.0000    96.0000 </r>
       <r>    -1.2040     0.0000    96.0000 </r>
       <r>    -1.1323     0.0000    96.0000 </r>
       <r>    -1.0607     0.0000    96.0000 </r>
       <r>    -0.9890     0.0000    96.0000 </r>
       <r>    -0.9174     0.0000    96.0000 </r>
       <r>    -0.8457     0.0000    96.0000 </r>
       <r>    -0.7741     0.0000    96.0000 </r>
       <r>    -0.7024     0.0000    96.0000 </r>
       <r>    -0.6307     0.0000    96.0000 </r>
       <r>    -0.5591     0.0000    96.0000 </r>
       <r>    -0.4874     0.0001    96.0000 </r>
       <r>    -0.4158     0.0852    96.0061 </r>
       <r>    -0.3441     1.7393    96.1307 </r>
       <r>    -0.2725     1.8827    96.2656 </r>
       <r>    -0.2008     8.1752    96.8514 </r>
       <r>    -0.1292    15.3911    97.9542 </r>
       <r>    -0.0575    23.9972    99.6737 </r>
       <r>     0.0141    50.8732   103.3190 </r>
       <r>     0.0858   101.4879   110.5909 </r>
       <r>     0.1574   188.3788   124.0889 </r>
       <r>     0.2291   205.0119   138.7787 </r>
       <r>     0.3007   274.3706   158.4383 </r>
       <r>     0.3724   194.2912   172.3600 </r>
       <r>     0.4441   125.2247   181.3327 </r>
       <r>     0.5157   140.7243   191.4161 </r>
       <r>     0.5874   124.2125   200.3164 </r>
       <r>     0.6590   165.2580   212.1577 </r>
       <r>     0.7307   244.9840   229.7116 </r>
       <r>     0.8023   229.1721   246.1326 </r>
       <r>     0.8740   290.6478   266.9585 </r>
       <r>     0.9456   286.0904   287.4579 </r>
       <r>     1.0173   147.4900   298.0260 </r>
       <r>     1.0889   183.3814   311.1660 </r>
       <r>     1.1606   226.5307   327.3977 </r>
       <r>     1.2322   228.9701   343.8042 </r>
       <r>     1.3039   297.7428   365.1385 </r>
       <r>     1.3756   305.7865   387.0491 </r>
       <r>     1.4472   391.2084   415.0805 </r>
       <r>     1.5189   355.5434   440.5564 </r>
       <r>     1.5905   373.0409   467.2861 </r>
       <r>     1.6622   365.5969   493.4824 </r>
       <r>     1.7338   391.3882   521.5267 </r>
       <r>     1.8055   372.7804   548.2377 </r>
       <r>     1.8771   357.9085   573.8831 </r>
       <r>     1.9488   388.7186   601.7361 </r>
       <r>     2.0204   414.6288   631.4457 </r>
       <r>     2.0921   378.6130   658.5746 </r>
       <r>     2.1637   360.9117   684.4352 </r>
       <r>     2.2354   374.8671   711.2957 </r>
       <r>     2.3070   397.3357   739.7662 </r>
       <r>     2.3787   338.6689   764.0329 </r>
       <r>     2.4504   296.4543   785.2749 </r>
       <r>     2.5220   338.9778   809.5638 </r>
       <r>     2.5937   354.5505   834.9686 </r>
       <r>     2.6653   408.5931   864.2457 </r>
       <r>     2.7370   374.7347   891.0967 </r>
       <r>     2.8086   379.1996   918.2677 </r>
       <r>     2.8803   431.5932   949.1928 </r>
       <r>     2.9519   498.4458   984.9082 </r>
       <r>     3.0236   497.4942  1020.5554 </r>
       <r>     3.0952   370.3316  1047.0909 </r>
       <r>     3.1669   234.2393  1063.8749 </r>
       <r>     3.2385   205.4142  1078.5936 </r>
       <r>     3.3102   170.8908  1090.8385 </r>
       <r>     3.3818   138.5810  1100.7683 </r>
       <r>     3.4535   119.2281  1109.3114 </r>
       <r>     3.5252   157.1961  1120.5750 </r>
       <r>     3.5968   163.5198  1132.2918 </r>
       <r>     3.6685   101.2531  1139.5469 </r>
       <r>     3.7401    96.7729  1146.4811 </r>
       <r>     3.8118    65.2514  1151.1565 </r>
       <r>     3.8834    72.1552  1156.3267 </r>
       <r>     3.9551    73.4839  1161.5921 </r>
       <r>     4.0267    65.1226  1166.2583 </r>
       <r>     4.0984    92.3544  1172.8759 </r>
       <r>     4.1700   103.2262  1180.2724 </r>
       <r>     4.2417   114.5299  1188.4788 </r>
       <r>     4.3133    75.1737  1193.8653 </r>
       <r>     4.3850    72.9098  1199.0895 </r>
       <r>     4.4566    65.3391  1203.7713 </r>
       <r>     4.5283    92.0005  1210.3634 </r>
       <r>     4.6000    93.3996  1217.0558 </r>
       <r>     4.6716   102.4233  1224.3948 </r>
       <r>     4.7433   139.4115  1234.3841 </r>
       <r>     4.8149   138.1667  1244.2843 </r>
       <r>     4.8866    72.8110  1249.5014 </r>
       <r>     4.9582    53.4880  1253.3340 </r>
       <r>     5.0299    55.0441  1257.2781 </r>
       <r>     5.1015    86.8332  1263.5000 </r>
       <r>     5.1732   144.0039  1273.8184 </r>
       <r>     5.2448   109.2204  1281.6444 </r>
       <r>     5.3165    63.1931  1286.1724 </r>
       <r>     5.3881    59.3462  1290.4248 </r>
       <r>     5.4598    69.3086  1295.3910 </r>
       <r>     5.5315    72.4108  1300.5794 </r>
       <r>     5.6031    76.5663  1306.0657 </r>
       <r>     5.6748   110.1430  1313.9578 </r>
       <r>     5.7464   132.3090  1323.4382 </r>
       <r>     5.8181    72.9456  1328.6650 </r>
       <r>     5.8897    64.4403  1333.2824 </r>
       <r>     5.9614    58.5840  1337.4801 </r>
       <r>     6.0330    30.5323  1339.6679 </r>
       <r>     6.1047    18.9797  1341.0278 </r>
       <r>     6.1763    21.5437  1342.5715 </r>
       <r>     6.2480    16.8835  1343.7812 </r>
       <r>     6.3196     9.0492  1344.4297 </r>
       <r>     6.3913     0.9765  1344.4996 </r>
       <r>     6.4629     0.1157  1344.5079 </r>
       <r>     6.5346     1.8705  1344.6419 </r>
       <r>     6.6063     1.7970  1344.7707 </r>
       <r>     6.6779     5.3012  1345.1506 </r>
       <r>     6.7496    22.8175  1346.7855 </r>
       <r>     6.8212    26.0723  1348.6537 </r>
       <r>     6.8929    11.2806  1349.4620 </r>
       <r>     6.9645     6.2976  1349.9132 </r>
       <r>     7.0362     8.9665  1350.5557 </r>
       <r>     7.1078     4.6854  1350.8914 </r>
       <r>     7.1795    21.4147  1352.4259 </r>
       <r>     7.2511    23.9459  1354.1417 </r>
       <r>     7.3228    28.0808  1356.1537 </r>
       <r>     7.3944    31.3153  1358.3976 </r>
       <r>     7.4661    30.3521  1360.5724 </r>
       <r>     7.5377    60.3423  1364.8962 </r>
       <r>     7.6094    71.7617  1370.0381 </r>
       <r>     7.6811    26.7802  1371.9570 </r>
       <r>     7.7527    54.4704  1375.8600 </r>
       <r>     7.8244    69.6250  1380.8489 </r>
       <r>     7.8960    73.2565  1386.0980 </r>
       <r>     7.9677    75.3764  1391.4989 </r>
       <r>     8.0393    66.3712  1396.2547 </r>
       <r>     8.1110    34.5135  1398.7277 </r>
       <r>     8.1826    18.7214  1400.0691 </r>
       <r>     8.2543     8.3925  1400.6705 </r>
       <r>     8.3259    10.2294  1401.4034 </r>
       <r>     8.3976    50.6506  1405.0327 </r>
       <r>     8.4692    34.4115  1407.4984 </r>
       <r>     8.5409    31.9023  1409.7844 </r>
       <r>     8.6125    94.5797  1416.5613 </r>
       <r>     8.6842   104.8704  1424.0756 </r>
       <r>     8.7559    58.7388  1428.2845 </r>
       <r>     8.8275    51.4601  1431.9718 </r>
       <r>     8.8992    33.4494  1434.3685 </r>
       <r>     8.9708    45.8166  1437.6515 </r>
       <r>     9.0425    30.4107  1439.8305 </r>
       <r>     9.1141    22.2580  1441.4253 </r>
       <r>     9.1858    10.3294  1442.1655 </r>
       <r>     9.2574    16.5710  1443.3529 </r>
       <r>     9.3291    53.3945  1447.1788 </r>
       <r>     9.4007    49.6866  1450.7390 </r>
       <r>     9.4724    54.3339  1454.6322 </r>
       <r>     9.5440    38.2335  1457.3717 </r>
       <r>     9.6157    50.7710  1461.0097 </r>
       <r>     9.6873    50.0718  1464.5975 </r>
       <r>     9.7590    47.8142  1468.0235 </r>
       <r>     9.8307    52.2744  1471.7692 </r>
       <r>     9.9023    76.3937  1477.2430 </r>
       <r>     9.9740    55.7590  1481.2384 </r>
       <r>    10.0456   108.0149  1488.9780 </r>
       <r>    10.1173   119.1602  1497.5162 </r>
       <r>    10.1889    43.2805  1500.6174 </r>
       <r>    10.2606    28.4318  1502.6547 </r>
       <r>    10.3322    48.8452  1506.1546 </r>
       <r>    10.4039    55.9810  1510.1658 </r>
       <r>    10.4755    90.3082  1516.6367 </r>
       <r>    10.5472   109.7064  1524.4976 </r>
       <r>    10.6188   112.0335  1532.5252 </r>
       <r>    10.6905    94.3782  1539.2877 </r>
       <r>    10.7622    78.1922  1544.8904 </r>
       <r>    10.8338   107.3164  1552.5800 </r>
       <r>    10.9055    90.1437  1559.0391 </r>
       <r>    10.9771    65.0947  1563.7034 </r>
       <r>    11.0488    35.0330  1566.2136 </r>
       <r>    11.1204    55.1975  1570.1687 </r>
       <r>    11.1921    51.9375  1573.8902 </r>
       <r>    11.2637    44.6462  1577.0893 </r>
       <r>    11.3354    83.0948  1583.0433 </r>
       <r>    11.4070    53.6130  1586.8848 </r>
       <r>    11.4787    54.8384  1590.8142 </r>
       <r>    11.5503    88.7115  1597.1707 </r>
       <r>    11.6220    68.2397  1602.0603 </r>
       <r>    11.6936    46.3760  1605.3833 </r>
       <r>    11.7653    12.2573  1606.2616 </r>
       <r>    11.8370    14.7336  1607.3173 </r>
       <r>    11.9086    36.1760  1609.9094 </r>
       <r>    11.9803    21.0493  1611.4177 </r>
       <r>    12.0519     3.0289  1611.6347 </r>
       <r>    12.1236     4.5334  1611.9595 </r>
       <r>    12.1952     0.5625  1611.9998 </r>
       <r>    12.2669     0.0023  1612.0000 </r>
       <r>    12.3385     0.0000  1612.0000 </r>
       <r>    12.4102     0.0000  1612.0000 </r>
       <r>    12.4818     0.0000  1612.0000 </r>
       <r>    12.5535     0.0000  1612.0000 </r>
       <r>    12.6251     0.0000  1612.0000 </r>
       <r>    12.6968     0.0000  1612.0000 </r>
       <r>    12.7684     0.0000  1612.0000 </r>
       <r>    12.8401     0.0000  1612.0000 </r>
       <r>    12.9118     0.0000  1612.0000 </r>
       <r>    12.9834     0.0000  1612.0000 </r>
       <r>    13.0551     0.0000  1612.0000 </r>
      </set>
     </set>
    </array>
   </total>
  </dos>
 </calculation>
 <structure name="finalpos" >
  <crystal>
   <varray name="basis" >
    <v>      14.01039598       0.00139138       0.00000000 </v>
    <v>      -0.00150196      13.76691092       0.00000000 </v>
    <v>       0.00000000       0.00000000      14.55019386 </v>
   </varray>
   <i name="volume">   2806.43958022 </i>
   <varray name="rec_basis" >
    <v>       0.07137557       0.00000779       0.00000000 </v>
    <v>      -0.00000721       0.07263794       0.00000000 </v>
    <v>       0.00000000       0.00000000       0.06872761 </v>
   </varray>
  </crystal>
  <varray name="positions" >
   <v>       0.42987898       0.17167077       0.33247735 </v>
   <v>       0.92987898       0.17167077       0.33247735 </v>
   <v>       0.42987898       0.67167077       0.33247735 </v>
   <v>       0.92987898       0.67167077       0.33247735 </v>
   <v>       0.42987898       0.17167077       0.66581068 </v>
   <v>       0.92987898       0.17167077       0.66581068 </v>
   <v>       0.42987898       0.67167077       0.66581068 </v>
   <v>       0.92987898       0.67167077       0.66581068 </v>
   <v>       0.42987898       0.17167077       0.99914401 </v>
   <v>       0.92987898       0.17167077       0.99914401 </v>
   <v>       0.42987898       0.67167077       0.99914401 </v>
   <v>       0.92987898       0.67167077       0.99914401 </v>
   <v>       0.07012102       0.32832923       0.33247735 </v>
   <v>       0.57012102       0.32832923       0.33247735 </v>
   <v>       0.07012102       0.82832923       0.33247735 </v>
   <v>       0.57012102       0.82832923       0.33247735 </v>
   <v>       0.07012102       0.32832923       0.66581068 </v>
   <v>       0.57012102       0.32832923       0.66581068 </v>
   <v>       0.07012102       0.82832923       0.66581068 </v>
   <v>       0.57012102       0.82832923       0.66581068 </v>
   <v>       0.07012102       0.32832923       0.99914401 </v>
   <v>       0.57012102       0.32832923       0.99914401 </v>
   <v>       0.07012102       0.82832923       0.99914401 </v>
   <v>       0.57012102       0.82832923       0.99914401 </v>
   <v>       0.32012053       0.42167367       0.05641075 </v>
   <v>       0.82012053       0.42167367       0.05641075 </v>
   <v>       0.32012053       0.92167367       0.05641075 </v>
   <v>       0.82012053       0.92167367       0.05641075 </v>
   <v>       0.32012053       0.42167367       0.38974408 </v>
   <v>       0.82012053       0.42167367       0.38974408 </v>
   <v>       0.32012053       0.92167367       0.38974408 </v>
   <v>       0.82012053       0.92167367       0.38974408 </v>
   <v>       0.32012053       0.42167367       0.72307741 </v>
   <v>       0.82012053       0.42167367       0.72307741 </v>
   <v>       0.32012053       0.92167367       0.72307741 </v>
   <v>       0.82012053       0.92167367       0.72307741 </v>
   <v>       0.17987947       0.07832633       0.05641075 </v>
   <v>       0.67987947       0.07832633       0.05641075 </v>
   <v>       0.17987947       0.57832633       0.05641075 </v>
   <v>       0.67987947       0.57832633       0.05641075 </v>
   <v>       0.17987947       0.07832633       0.38974408 </v>
   <v>       0.67987947       0.07832633       0.38974408 </v>
   <v>       0.17987947       0.57832633       0.38974408 </v>
   <v>       0.67987947       0.57832633       0.38974408 </v>
   <v>       0.17987947       0.07832633       0.72307741 </v>
   <v>       0.67987947       0.07832633       0.72307741 </v>
   <v>       0.17987947       0.57832633       0.72307741 </v>
   <v>       0.67987947       0.57832633       0.72307741 </v>
   <v>       0.17987776       0.32832369       0.16580856 </v>
   <v>       0.67987776       0.32832369       0.16580856 </v>
   <v>       0.17987776       0.82832369       0.16580856 </v>
   <v>       0.67987776       0.82832369       0.16580856 </v>
   <v>       0.17987776       0.32832369       0.49914189 </v>
   <v>       0.67987776       0.32832369       0.49914189 </v>
   <v>       0.17987776       0.82832369       0.49914189 </v>
   <v>       0.67987776       0.82832369       0.49914189 </v>
   <v>       0.17987776       0.32832369       0.83247522 </v>
   <v>       0.67987776       0.32832369       0.83247522 </v>
   <v>       0.17987776       0.82832369       0.83247522 </v>
   <v>       0.67987776       0.82832369       0.83247522 </v>
   <v>       0.32012224       0.17167631       0.16580856 </v>
   <v>       0.82012224       0.17167631       0.16580856 </v>
   <v>       0.32012224       0.67167631       0.16580856 </v>
   <v>       0.82012224       0.67167631       0.16580856 </v>
   <v>       0.32012224       0.17167631       0.49914189 </v>
   <v>       0.82012224       0.17167631       0.49914189 </v>
   <v>       0.32012224       0.67167631       0.49914189 </v>
   <v>       0.82012224       0.67167631       0.49914189 </v>
   <v>       0.32012224       0.17167631       0.83247522 </v>
   <v>       0.82012224       0.17167631       0.83247522 </v>
   <v>       0.32012224       0.67167631       0.83247522 </v>
   <v>       0.82012224       0.67167631       0.83247522 </v>
   <v>       0.42916280       0.42167494       0.22308000 </v>
   <v>       0.92987656       0.42167494       0.22308000 </v>
   <v>       0.42987656       0.92167494       0.22308000 </v>
   <v>       0.92987656       0.92167494       0.22308000 </v>
   <v>       0.42987656       0.42167494       0.55641333 </v>
   <v>       0.92987656       0.42167494       0.55641333 </v>
   <v>       0.42987656       0.92167494       0.55641333 </v>
   <v>       0.92987656       0.92167494       0.55641333 </v>
   <v>       0.42987656       0.42167494       0.88974666 </v>
   <v>       0.92987656       0.42167494       0.88974666 </v>
   <v>       0.42987656       0.92167494       0.88974666 </v>
   <v>       0.92987656       0.92167494       0.88974666 </v>
   <v>       0.07012344       0.07832506       0.22308000 </v>
   <v>       0.57012344       0.07832506       0.22308000 </v>
   <v>       0.07012344       0.57832506       0.22308000 </v>
   <v>       0.57012344       0.57832506       0.22308000 </v>
   <v>       0.07012344       0.07832506       0.55641333 </v>
   <v>       0.57012344       0.07832506       0.55641333 </v>
   <v>       0.07012344       0.57832506       0.55641333 </v>
   <v>       0.57012344       0.57832506       0.55641333 </v>
   <v>       0.07012344       0.07832506       0.88974666 </v>
   <v>       0.57012344       0.07832506       0.88974666 </v>
   <v>       0.07012344       0.57832506       0.88974666 </v>
   <v>       0.57012344       0.57832506       0.88974666 </v>
   <v>       0.00000000       0.00000000       0.05479365 </v>
   <v>       0.50000000       0.00000000       0.05479365 </v>
   <v>       0.00000000       0.50000000       0.05479365 </v>
   <v>       0.50000000       0.50000000       0.05479365 </v>
   <v>       0.00000000       0.00000000       0.38812698 </v>
   <v>       0.50000000       0.00000000       0.38812698 </v>
   <v>       0.00000000       0.50000000       0.38812698 </v>
   <v>       0.50000000       0.50000000       0.38812698 </v>
   <v>       0.00000000       0.00000000       0.72146032 </v>
   <v>       0.50000000       0.00000000       0.72146032 </v>
   <v>       0.00000000       0.50000000       0.72146032 </v>
   <v>       0.50000000       0.50000000       0.72146032 </v>
   <v>       0.25000000       0.00000000       0.22145206 </v>
   <v>       0.75000000       0.00000000       0.22145206 </v>
   <v>       0.25000000       0.50000000       0.22145206 </v>
   <v>       0.75000000       0.50000000       0.22145206 </v>
   <v>       0.25000000       0.00000000       0.55478539 </v>
   <v>       0.75000000       0.00000000       0.55478539 </v>
   <v>       0.25000000       0.50000000       0.55478539 </v>
   <v>       0.75000000       0.50000000       0.55478539 </v>
   <v>       0.25000000       0.00000000       0.88811873 </v>
   <v>       0.75000000       0.00000000       0.88811873 </v>
   <v>       0.25000000       0.50000000       0.88811873 </v>
   <v>       0.75000000       0.50000000       0.88811873 </v>
   <v>       0.00000000       0.25000000       0.16743769 </v>
   <v>       0.50000000       0.25000000       0.16743769 </v>
   <v>       0.00000000       0.75000000       0.16743769 </v>
   <v>       0.50000000       0.75000000       0.16743769 </v>
   <v>       0.00000000       0.25000000       0.50077102 </v>
   <v>       0.50000000       0.25000000       0.50077102 </v>
   <v>       0.00000000       0.75000000       0.50077102 </v>
   <v>       0.50000000       0.75000000       0.50077102 </v>
   <v>       0.00000000       0.25000000       0.83410435 </v>
   <v>       0.50000000       0.25000000       0.83410435 </v>
   <v>       0.00000000       0.75000000       0.83410435 </v>
   <v>       0.50000000       0.75000000       0.83410435 </v>
   <v>       0.25000000       0.25000000       0.00076332 </v>
   <v>       0.75000000       0.25000000       0.00076332 </v>
   <v>       0.25000000       0.75000000       0.00076332 </v>
   <v>       0.75000000       0.75000000       0.00076332 </v>
   <v>       0.25000000       0.25000000       0.33409665 </v>
   <v>       0.75000000       0.25000000       0.33409665 </v>
   <v>       0.25000000       0.75000000       0.33409665 </v>
   <v>       0.75000000       0.75000000       0.33409665 </v>
   <v>       0.25000000       0.25000000       0.66742999 </v>
   <v>       0.75000000       0.25000000       0.66742999 </v>
   <v>       0.25000000       0.75000000       0.66742999 </v>
   <v>       0.75000000       0.75000000       0.66742999 </v>
  </varray>
 </structure>
</modeling>
