<?xml version="1.0" encoding="ISO-8859-1"?>
<modeling>
 <generator>
  <i name="program" type="string">vasp </i>
  <i name="version" type="string">5.4.4.18Apr17-6-g9f103f2a35  </i>
  <i name="subversion" type="string">(build Jul 30 2020 14:31:59) complex            parallel </i>
  <i name="platform" type="string">LinuxIFC </i>
  <i name="date" type="string">2021 02 04 </i>
  <i name="time" type="string">08:10:35 </i>
 </generator>
 <incar>
  <i type="string" name="PREC">accurate</i>
  <i type="string" name="ALGO"> normal</i>
  <i type="logical" name="ADDGRID"> T  </i>
  <i type="int" name="ISPIN">     1</i>
  <i type="int" name="NELM">   200</i>
  <i type="int" name="NELMIN">     8</i>
  <i name="EDIFF">      0.00000001</i>
  <i type="int" name="ISIF">     3</i>
  <i type="int" name="ISYM">     0</i>
  <i name="ENCUT">    650.00000000</i>
  <i type="logical" name="LREAL"> F  </i>
  <i type="int" name="ISMEAR">     0</i>
  <i name="SIGMA">      0.05000000</i>
  <i type="logical" name="LWAVE"> F  </i>
  <i type="logical" name="LASPH"> T  </i>
  <v type="int" name="KPOINT_BSE">    -1     0     0     0</v>
  <i type="int" name="NELM">   200</i>
  <i type="string" name="GGA"> ps</i>
  <i type="logical" name="LASPH"> T  </i>
 </incar>
 <structure name="primitive_cell" >
  <crystal>
   <varray name="basis" >
    <v>      14.01039598       0.00139138       0.00000000 </v>
    <v>      -0.00150196      13.76691092       0.00000000 </v>
    <v>       0.00000000       0.00000000      14.55019386 </v>
   </varray>
   <i name="volume">   2806.43958022 </i>
   <varray name="rec_basis" >
    <v>       0.07137557       0.00000779       0.00000000 </v>
    <v>      -0.00000721       0.07263794       0.00000000 </v>
    <v>       0.00000000       0.00000000       0.06872761 </v>
   </varray>
  </crystal>
  <varray name="positions" >
   <v>       0.42987898       0.17167077       0.33247735 </v>
   <v>      -0.50000000       0.00000000       0.38812698 </v>
   <v>       0.25000000       0.25000000       0.33409665 </v>
   <v>      -0.50000000       0.25000000       0.16743769 </v>
   <v>      -0.42987656       0.07832506       0.22308000 </v>
   <v>      -0.50000000       0.25000000      -0.49922898 </v>
   <v>       0.32012224       0.17167631       0.49914189 </v>
   <v>       0.32012224       0.17167631       0.16580856 </v>
   <v>      -0.42987898       0.32832923       0.33247735 </v>
   <v>       0.42987656       0.42167494       0.22376727 </v>
   <v>       0.42987656      -0.07832506       0.22308000 </v>
   <v>       0.25000000       0.00000000       0.22145206 </v>
   <v>       0.17987948       0.07832633       0.38974408 </v>
   <v>      -0.32012052       0.07832633       0.38974408 </v>
   <v>       0.32012052      -0.07832633       0.38974408 </v>
   <v>       0.32012052       0.42167367       0.38974408 </v>
   <v>      -0.42987656       0.07832506      -0.44358667 </v>
   <v>      -0.25000000       0.25000000       0.33409665 </v>
   <v>      -0.50000000      -0.50000000       0.38812698 </v>
   <v>       0.25000000       0.00000000      -0.44521461 </v>
   <v>       0.42987656      -0.07832506      -0.44358667 </v>
   <v>       0.42987656       0.42167494      -0.44358667 </v>
   <v>      -0.32012224       0.32832369       0.49914189 </v>
   <v>      -0.32012224       0.32832369       0.16580856 </v>
   <v>       0.17987776       0.32832369       0.49914189 </v>
   <v>       0.17987776       0.32832369       0.16580856 </v>
   <v>      -0.50000000       0.00000000       0.05479365 </v>
   <v>       0.42987898       0.17167077      -0.33418932 </v>
   <v>       0.42987898       0.17167077      -0.00085599 </v>
   <v>      -0.42987898      -0.17167077       0.33247735 </v>
   <v>      -0.25000000       0.00000000       0.22145206 </v>
   <v>       0.25000000      -0.50000000       0.22145206 </v>
   <v>       0.07012344       0.07832506       0.22308000 </v>
   <v>       0.17987948       0.07832633       0.05641075 </v>
   <v>      -0.32012052       0.07832633       0.05641075 </v>
   <v>       0.07012102       0.32832923       0.33247735 </v>
   <v>       0.32012052      -0.07832633       0.05641075 </v>
   <v>       0.32012052       0.42167367       0.05641075 </v>
   <v>       0.25000000       0.25000000       0.00076332 </v>
   <v>       0.25000000       0.25000000      -0.33257001 </v>
   <v>      -0.42987898       0.32832923      -0.33418932 </v>
   <v>      -0.42987898       0.32832923      -0.00085599 </v>
   <v>      -0.17987776       0.17167631       0.49914189 </v>
   <v>      -0.17987776       0.17167631       0.16580856 </v>
   <v>      -0.25000000       0.00000000      -0.44521461 </v>
   <v>       0.25000000      -0.50000000      -0.44521461 </v>
   <v>       0.07012344       0.07832506      -0.44358667 </v>
   <v>      -0.50000000      -0.50000000       0.05479365 </v>
   <v>      -0.42987656      -0.42167494       0.22308000 </v>
   <v>      -0.50000000       0.00000000      -0.27853968 </v>
   <v>       0.25000000      -0.25000000       0.33409665 </v>
   <v>      -0.50000000      -0.25000000       0.16743769 </v>
   <v>       0.17987776      -0.17167631       0.49914189 </v>
   <v>       0.17987776      -0.17167631       0.16580856 </v>
   <v>      -0.32012224      -0.17167631       0.49914189 </v>
   <v>      -0.32012224      -0.17167631       0.16580856 </v>
   <v>      -0.50000000      -0.25000000      -0.49922898 </v>
   <v>      -0.17987948       0.42167367       0.38974408 </v>
   <v>      -0.17987948      -0.07832633       0.38974408 </v>
   <v>       0.00000000       0.00000000       0.38812698 </v>
   <v>      -0.25000000      -0.50000000       0.22145206 </v>
   <v>       0.00000000       0.25000000       0.16743769 </v>
   <v>       0.00000000       0.25000000      -0.49922898 </v>
   <v>      -0.32012052      -0.42167367       0.38974408 </v>
   <v>       0.17987948      -0.42167367       0.38974408 </v>
   <v>      -0.25000000       0.25000000       0.00076332 </v>
   <v>      -0.25000000       0.25000000      -0.33257001 </v>
   <v>      -0.42987656      -0.42167494      -0.44358667 </v>
   <v>       0.17987948       0.07832633      -0.27692259 </v>
   <v>      -0.32012052       0.07832633      -0.27692259 </v>
   <v>       0.32012052      -0.07832633      -0.27692259 </v>
   <v>       0.32012052       0.42167367      -0.27692259 </v>
   <v>      -0.42987656       0.07832506      -0.11025334 </v>
   <v>       0.42987898      -0.32832923       0.33247735 </v>
   <v>       0.07012102      -0.17167077       0.33247735 </v>
   <v>      -0.07012102       0.17167077       0.33247735 </v>
   <v>      -0.42987898      -0.17167077      -0.33418932 </v>
   <v>      -0.42987898      -0.17167077      -0.00085599 </v>
   <v>      -0.25000000      -0.50000000      -0.44521461 </v>
   <v>       0.42987656      -0.07832506      -0.11025334 </v>
   <v>       0.42987656       0.42167494      -0.11025334 </v>
   <v>      -0.50000000      -0.50000000      -0.27853968 </v>
   <v>       0.07012102       0.32832923      -0.33418932 </v>
   <v>       0.07012102       0.32832923      -0.00085599 </v>
   <v>       0.25000000       0.00000000      -0.11188127 </v>
   <v>      -0.25000000      -0.25000000       0.33409665 </v>
   <v>      -0.50000000       0.25000000      -0.16589565 </v>
   <v>       0.32012224       0.17167631      -0.16752478 </v>
   <v>       0.32012224      -0.32832369       0.49914189 </v>
   <v>       0.32012224      -0.32832369       0.16580856 </v>
   <v>       0.00000000      -0.50000000       0.38812698 </v>
   <v>      -0.17987948       0.42167367       0.05641075 </v>
   <v>      -0.17987948      -0.07832633       0.05641075 </v>
   <v>       0.00000000       0.00000000       0.05479365 </v>
   <v>       0.07012344      -0.42167494       0.22308000 </v>
   <v>      -0.32012052      -0.42167367       0.05641075 </v>
   <v>       0.17987948      -0.42167367       0.05641075 </v>
   <v>       0.25000000      -0.25000000       0.00076332 </v>
   <v>      -0.07012344       0.42167494       0.22308000 </v>
   <v>      -0.07012344      -0.07832506       0.22308000 </v>
   <v>       0.25000000      -0.25000000      -0.33257001 </v>
   <v>       0.07012344      -0.42167494      -0.44358667 </v>
   <v>      -0.25000000       0.00000000      -0.11188127 </v>
   <v>       0.07012344       0.07832506      -0.11025334 </v>
   <v>       0.25000000      -0.50000000      -0.11188127 </v>
   <v>      -0.32012224       0.32832369      -0.16752478 </v>
   <v>       0.17987776       0.32832369      -0.16752478 </v>
   <v>       0.42987898      -0.32832923      -0.33418932 </v>
   <v>       0.42987898      -0.32832923      -0.00085599 </v>
   <v>       0.07012102      -0.17167077      -0.33418932 </v>
   <v>       0.07012102      -0.17167077      -0.00085599 </v>
   <v>      -0.07012344       0.42167494      -0.44358667 </v>
   <v>      -0.07012344      -0.07832506      -0.44358667 </v>
   <v>      -0.07012102       0.17167077      -0.33418932 </v>
   <v>      -0.07012102       0.17167077      -0.00085599 </v>
   <v>       0.00000000      -0.50000000       0.05479365 </v>
   <v>       0.00000000       0.00000000      -0.27853968 </v>
   <v>      -0.17987948       0.42167367      -0.27692259 </v>
   <v>      -0.17987948      -0.07832633      -0.27692259 </v>
   <v>       0.00000000      -0.25000000       0.16743769 </v>
   <v>      -0.32012052      -0.42167367      -0.27692259 </v>
   <v>       0.17987948      -0.42167367      -0.27692259 </v>
   <v>       0.00000000      -0.25000000      -0.49922898 </v>
   <v>      -0.42987656      -0.42167494      -0.11025334 </v>
   <v>      -0.25000000      -0.25000000       0.00076332 </v>
   <v>      -0.25000000      -0.25000000      -0.33257001 </v>
   <v>      -0.25000000      -0.50000000      -0.11188127 </v>
   <v>      -0.17987776       0.17167631      -0.16752478 </v>
   <v>      -0.17987776      -0.32832369       0.49914189 </v>
   <v>      -0.17987776      -0.32832369       0.16580856 </v>
   <v>      -0.50000000      -0.25000000      -0.16589565 </v>
   <v>       0.17987776      -0.17167631      -0.16752478 </v>
   <v>      -0.32012224      -0.17167631      -0.16752478 </v>
   <v>       0.00000000      -0.50000000      -0.27853968 </v>
   <v>       0.00000000       0.25000000      -0.16589565 </v>
   <v>      -0.07012102      -0.32832923       0.33247735 </v>
   <v>       0.07012344      -0.42167494      -0.11025334 </v>
   <v>      -0.07012344       0.42167494      -0.11025334 </v>
   <v>      -0.07012344      -0.07832506      -0.11025334 </v>
   <v>       0.32012224      -0.32832369      -0.16752478 </v>
   <v>      -0.07012102      -0.32832923      -0.33418932 </v>
   <v>      -0.07012102      -0.32832923      -0.00085599 </v>
   <v>       0.00000000      -0.25000000      -0.16589565 </v>
   <v>      -0.17987776      -0.32832369      -0.16752478 </v>
  </varray>
 </structure>
 <varray name="primitive_index" >
  <v type="int" >        1 </v>
  <v type="int" >      102 </v>
  <v type="int" >      137 </v>
  <v type="int" >      122 </v>
  <v type="int" >       86 </v>
  <v type="int" >      126 </v>
  <v type="int" >       65 </v>
  <v type="int" >       61 </v>
  <v type="int" >       14 </v>
  <v type="int" >       73 </v>
  <v type="int" >       75 </v>
  <v type="int" >      109 </v>
  <v type="int" >       41 </v>
  <v type="int" >       42 </v>
  <v type="int" >       31 </v>
  <v type="int" >       29 </v>
  <v type="int" >       90 </v>
  <v type="int" >      138 </v>
  <v type="int" >      104 </v>
  <v type="int" >      113 </v>
  <v type="int" >       79 </v>
  <v type="int" >       77 </v>
  <v type="int" >       54 </v>
  <v type="int" >       50 </v>
  <v type="int" >       53 </v>
  <v type="int" >       49 </v>
  <v type="int" >       98 </v>
  <v type="int" >        5 </v>
  <v type="int" >        9 </v>
  <v type="int" >       16 </v>
  <v type="int" >      110 </v>
  <v type="int" >      111 </v>
  <v type="int" >       85 </v>
  <v type="int" >       37 </v>
  <v type="int" >       38 </v>
  <v type="int" >       13 </v>
  <v type="int" >       27 </v>
  <v type="int" >       25 </v>
  <v type="int" >      133 </v>
  <v type="int" >      141 </v>
  <v type="int" >       18 </v>
  <v type="int" >       22 </v>
  <v type="int" >       66 </v>
  <v type="int" >       62 </v>
  <v type="int" >      114 </v>
  <v type="int" >      115 </v>
  <v type="int" >       89 </v>
  <v type="int" >      100 </v>
  <v type="int" >       88 </v>
  <v type="int" >      106 </v>
  <v type="int" >      139 </v>
  <v type="int" >      124 </v>
  <v type="int" >       55 </v>
  <v type="int" >       51 </v>
  <v type="int" >       56 </v>
  <v type="int" >       52 </v>
  <v type="int" >      128 </v>
  <v type="int" >       30 </v>
  <v type="int" >       32 </v>
  <v type="int" >      101 </v>
  <v type="int" >      112 </v>
  <v type="int" >      121 </v>
  <v type="int" >      125 </v>
  <v type="int" >       44 </v>
  <v type="int" >       43 </v>
  <v type="int" >      134 </v>
  <v type="int" >      142 </v>
  <v type="int" >       92 </v>
  <v type="int" >       45 </v>
  <v type="int" >       46 </v>
  <v type="int" >       35 </v>
  <v type="int" >       33 </v>
  <v type="int" >       94 </v>
  <v type="int" >        3 </v>
  <v type="int" >       15 </v>
  <v type="int" >        2 </v>
  <v type="int" >       20 </v>
  <v type="int" >       24 </v>
  <v type="int" >      116 </v>
  <v type="int" >       83 </v>
  <v type="int" >       81 </v>
  <v type="int" >      108 </v>
  <v type="int" >       17 </v>
  <v type="int" >       21 </v>
  <v type="int" >      117 </v>
  <v type="int" >      140 </v>
  <v type="int" >      130 </v>
  <v type="int" >       69 </v>
  <v type="int" >       67 </v>
  <v type="int" >       63 </v>
  <v type="int" >      103 </v>
  <v type="int" >       26 </v>
  <v type="int" >       28 </v>
  <v type="int" >       97 </v>
  <v type="int" >       87 </v>
  <v type="int" >       40 </v>
  <v type="int" >       39 </v>
  <v type="int" >      135 </v>
  <v type="int" >       74 </v>
  <v type="int" >       76 </v>
  <v type="int" >      143 </v>
  <v type="int" >       91 </v>
  <v type="int" >      118 </v>
  <v type="int" >       93 </v>
  <v type="int" >      119 </v>
  <v type="int" >       58 </v>
  <v type="int" >       57 </v>
  <v type="int" >        7 </v>
  <v type="int" >       11 </v>
  <v type="int" >       19 </v>
  <v type="int" >       23 </v>
  <v type="int" >       78 </v>
  <v type="int" >       80 </v>
  <v type="int" >        6 </v>
  <v type="int" >       10 </v>
  <v type="int" >       99 </v>
  <v type="int" >      105 </v>
  <v type="int" >       34 </v>
  <v type="int" >       36 </v>
  <v type="int" >      123 </v>
  <v type="int" >       48 </v>
  <v type="int" >       47 </v>
  <v type="int" >      127 </v>
  <v type="int" >       96 </v>
  <v type="int" >      136 </v>
  <v type="int" >      144 </v>
  <v type="int" >      120 </v>
  <v type="int" >       70 </v>
  <v type="int" >       68 </v>
  <v type="int" >       64 </v>
  <v type="int" >      132 </v>
  <v type="int" >       59 </v>
  <v type="int" >       60 </v>
  <v type="int" >      107 </v>
  <v type="int" >      129 </v>
  <v type="int" >        4 </v>
  <v type="int" >       95 </v>
  <v type="int" >       82 </v>
  <v type="int" >       84 </v>
  <v type="int" >       71 </v>
  <v type="int" >        8 </v>
  <v type="int" >       12 </v>
  <v type="int" >      131 </v>
  <v type="int" >       72 </v>
 </varray>
 <kpoints>
  <generation param="Gamma">
   <v type="int" name="divisions">       2        2        2 </v>
   <v name="usershift">      0.00000000       0.00000000       0.00000000 </v>
   <v name="genvec1">      0.50000000       0.00000000       0.00000000 </v>
   <v name="genvec2">      0.00000000       0.50000000       0.00000000 </v>
   <v name="genvec3">      0.00000000       0.00000000       0.50000000 </v>
   <v name="shift">      0.00000000       0.00000000       0.00000000 </v>
  </generation>
  <varray name="kpointlist" >
   <v>       0.00000000       0.00000000       0.00000000 </v>
   <v>       0.50000000      -0.00000000       0.00000000 </v>
   <v>       0.00000000       0.50000000       0.00000000 </v>
   <v>       0.50000000       0.50000000       0.00000000 </v>
   <v>       0.00000000       0.00000000       0.50000000 </v>
   <v>       0.50000000      -0.00000000       0.50000000 </v>
   <v>       0.00000000       0.50000000       0.50000000 </v>
   <v>       0.50000000       0.50000000       0.50000000 </v>
  </varray>
  <varray name="weights" >
   <v>       0.12500000 </v>
   <v>       0.12500000 </v>
   <v>       0.12500000 </v>
   <v>       0.12500000 </v>
   <v>       0.12500000 </v>
   <v>       0.12500000 </v>
   <v>       0.12500000 </v>
   <v>       0.12500000 </v>
  </varray>
 </kpoints>
 <parameters>
  <separator name="general" >
   <i type="string" name="SYSTEM">unknown system</i>
   <i type="logical" name="LCOMPAT"> F  </i>
  </separator>
  <separator name="electronic" >
   <i type="string" name="PREC">accura</i>
   <i name="ENMAX">    650.00000000</i>
   <i name="ENAUG">    446.84200000</i>
   <i name="EDIFF">      0.00000001</i>
   <i type="int" name="IALGO">    38</i>
   <i type="int" name="IWAVPR">    10</i>
   <i type="int" name="NBANDS">   806</i>
   <i name="NELECT">   1344.00000000</i>
   <i type="int" name="TURBO">     0</i>
   <i type="int" name="IRESTART">     0</i>
   <i type="int" name="NREBOOT">     0</i>
   <i type="int" name="NMIN">     0</i>
   <i name="EREF">      0.00000000</i>
   <separator name="electronic smearing" >
    <i type="int" name="ISMEAR">     0</i>
    <i name="SIGMA">      0.05000000</i>
    <i name="KSPACING">      0.50000000</i>
    <i type="logical" name="KGAMMA"> T  </i>
   </separator>
   <separator name="electronic projectors" >
    <i type="logical" name="LREAL"> F  </i>
    <v name="ROPT">      0.00000000      0.00000000</v>
    <i type="int" name="LMAXPAW">  -100</i>
    <i type="int" name="LMAXMIX">     2</i>
    <i type="logical" name="NLSPLINE"> F  </i>
   </separator>
   <separator name="electronic startup" >
    <i type="int" name="ISTART">     0</i>
    <i type="int" name="ICHARG">     2</i>
    <i type="int" name="INIWAV">     1</i>
   </separator>
   <separator name="electronic spin" >
    <i type="int" name="ISPIN">     1</i>
    <i type="logical" name="LNONCOLLINEAR"> F  </i>
    <v name="MAGMOM">      1.00000000      1.00000000      1.00000000      1.00000000      1.00000000      1.00000000      1.00000000      1.00000000      1.00000000      1.00000000      1.00000000      1.00000000      1.00000000      1.00000000      1.00000000      1.00000000      1.00000000      1.00000000      1.00000000      1.00000000
      1.00000000      1.00000000      1.00000000      1.00000000      1.00000000      1.00000000      1.00000000      1.00000000      1.00000000      1.00000000      1.00000000      1.00000000      1.00000000      1.00000000      1.00000000      1.00000000      1.00000000      1.00000000      1.00000000      1.00000000
      1.00000000      1.00000000      1.00000000      1.00000000      1.00000000      1.00000000      1.00000000      1.00000000      1.00000000      1.00000000      1.00000000      1.00000000      1.00000000      1.00000000      1.00000000      1.00000000      1.00000000      1.00000000      1.00000000      1.00000000
      1.00000000      1.00000000      1.00000000      1.00000000      1.00000000      1.00000000      1.00000000      1.00000000      1.00000000      1.00000000      1.00000000      1.00000000      1.00000000      1.00000000      1.00000000      1.00000000      1.00000000      1.00000000      1.00000000      1.00000000
      1.00000000      1.00000000      1.00000000      1.00000000      1.00000000      1.00000000      1.00000000      1.00000000      1.00000000      1.00000000      1.00000000      1.00000000      1.00000000      1.00000000      1.00000000      1.00000000      1.00000000      1.00000000      1.00000000      1.00000000
      1.00000000      1.00000000      1.00000000      1.00000000      1.00000000      1.00000000      1.00000000      1.00000000      1.00000000      1.00000000      1.00000000      1.00000000      1.00000000      1.00000000      1.00000000      1.00000000      1.00000000      1.00000000      1.00000000      1.00000000
      1.00000000      1.00000000      1.00000000      1.00000000      1.00000000      1.00000000      1.00000000      1.00000000      1.00000000      1.00000000      1.00000000      1.00000000      1.00000000      1.00000000      1.00000000      1.00000000      1.00000000      1.00000000      1.00000000      1.00000000
      1.00000000      1.00000000      1.00000000      1.00000000</v>
    <i name="NUPDOWN">     -1.00000000</i>
    <i type="logical" name="LSORBIT"> F  </i>
    <v name="SAXIS">      0.00000000      0.00000000      1.00000000</v>
    <i type="logical" name="LSPIRAL"> F  </i>
    <v name="QSPIRAL">      0.00000000      0.00000000      0.00000000</v>
    <i type="logical" name="LZEROZ"> F  </i>
   </separator>
   <separator name="electronic exchange-correlation" >
    <i type="logical" name="LASPH"> T  </i>
    <i type="logical" name="LMETAGGA"> F  </i>
   </separator>
   <separator name="electronic convergence" >
    <i type="int" name="NELM">   200</i>
    <i type="int" name="NELMDL">    -5</i>
    <i type="int" name="NELMIN">     8</i>
    <i name="ENINI">    650.00000000</i>
    <separator name="electronic convergence detail" >
     <i type="logical" name="LDIAG"> T  </i>
     <i type="logical" name="LSUBROT"> F  </i>
     <i name="WEIMIN">      0.00000000</i>
     <i name="EBREAK">      0.00000000</i>
     <i name="DEPER">      0.30000000</i>
     <i type="int" name="NRMM">     4</i>
     <i name="TIME">      0.40000000</i>
    </separator>
   </separator>
   <separator name="electronic mixer" >
    <i name="AMIX">      0.40000000</i>
    <i name="BMIX">      1.00000000</i>
    <i name="AMIN">      0.10000000</i>
    <i name="AMIX_MAG">      1.60000000</i>
    <i name="BMIX_MAG">      1.00000000</i>
    <separator name="electronic mixer details" >
     <i type="int" name="IMIX">     4</i>
     <i type="logical" name="MIXFIRST"> F  </i>
     <i type="int" name="MAXMIX">   -45</i>
     <i name="WC">    100.00000000</i>
     <i type="int" name="INIMIX">     1</i>
     <i type="int" name="MIXPRE">     1</i>
     <i type="int" name="MREMOVE">     5</i>
    </separator>
   </separator>
   <separator name="electronic dipolcorrection" >
    <i type="logical" name="LDIPOL"> F  </i>
    <i type="logical" name="LMONO"> F  </i>
    <i type="int" name="IDIPOL">     0</i>
    <i name="EPSILON">      1.00000000</i>
    <v name="DIPOL">   -100.00000000   -100.00000000   -100.00000000</v>
    <i name="EFIELD">      0.00000000</i>
   </separator>
  </separator>
  <separator name="grids" >
   <i type="int" name="NGX">   120</i>
   <i type="int" name="NGY">   120</i>
   <i type="int" name="NGZ">   126</i>
   <i type="int" name="NGXF">   240</i>
   <i type="int" name="NGYF">   240</i>
   <i type="int" name="NGZF">   252</i>
   <i type="logical" name="ADDGRID"> T  </i>
  </separator>
  <separator name="ionic" >
   <i type="int" name="NSW">     0</i>
   <i type="int" name="IBRION">    -1</i>
   <i type="int" name="MDALGO">     0</i>
   <i type="int" name="ISIF">     3</i>
   <i name="PSTRESS">      0.00000000</i>
   <i name="EDIFFG">      0.00000010</i>
   <i type="int" name="NFREE">     0</i>
   <i name="POTIM">      0.50000000</i>
   <i name="SMASS">     -3.00000000</i>
   <i name="SCALEE">      1.00000000</i>
  </separator>
  <separator name="ionic md" >
   <i name="TEBEG">      0.00010000</i>
   <i name="TEEND">      0.00010000</i>
   <i type="int" name="NBLOCK">     1</i>
   <i type="int" name="KBLOCK">     1</i>
   <i type="int" name="NPACO">   256</i>
   <i name="APACO">     16.00000000</i>
  </separator>
  <separator name="symmetry" >
   <i type="int" name="ISYM">     0</i>
   <i name="SYMPREC">      0.00001000</i>
  </separator>
  <separator name="dos" >
   <i type="int" name="LORBIT">     0</i>
   <v name="RWIGS">     -1.00000000     -1.00000000</v>
   <i type="int" name="NEDOS">   301</i>
   <i name="EMIN">     10.00000000</i>
   <i name="EMAX">    -10.00000000</i>
   <i name="EFERMI">      0.00000000</i>
  </separator>
  <separator name="writing" >
   <i type="int" name="NWRITE">     2</i>
   <i type="logical" name="LWAVE"> F  </i>
   <i type="logical" name="LDOWNSAMPLE"> F  </i>
   <i type="logical" name="LCHARG"> T  </i>
   <i type="logical" name="LPARD"> F  </i>
   <i type="logical" name="LVTOT"> F  </i>
   <i type="logical" name="LVHAR"> F  </i>
   <i type="logical" name="LELF"> F  </i>
   <i type="logical" name="LOPTICS"> F  </i>
   <v name="STM">      0.00000000      0.00000000      0.00000000      0.00000000      0.00000000      0.00000000      0.00000000</v>
  </separator>
  <separator name="performance" >
   <i type="int" name="NPAR">     1</i>
   <i type="int" name="NSIM">     4</i>
   <i type="int" name="NBLK">    -1</i>
   <i type="logical" name="LPLANE"> T  </i>
   <i type="logical" name="LSCALAPACK"> T  </i>
   <i type="logical" name="LSCAAWARE"> F  </i>
   <i type="logical" name="LSCALU"> F  </i>
   <i type="logical" name="LASYNC"> F  </i>
   <i type="logical" name="LORBITALREAL"> F  </i>
  </separator>
  <separator name="miscellaneous" >
   <i type="int" name="IDIOT">     3</i>
   <i type="int" name="ISPECIAL">     0</i>
   <i type="logical" name="LMUSIC"> F  </i>
   <v name="POMASS">    107.86800000     78.96000000</v>
   <v name="DARWINR">      0.00000000      0.00000000</v>
   <v name="DARWINV">      1.00000000      1.00000000</v>
   <i type="logical" name="LCORR"> T  </i>
  </separator>
  <i type="logical" name="GGA_COMPAT"> T  </i>
  <i type="logical" name="LBERRY"> F  </i>
  <i type="int" name="ICORELEVEL">     0</i>
  <i type="logical" name="LDAU"> F  </i>
  <i type="int" name="I_CONSTRAINED_M">     0</i>
  <separator name="electronic exchange-correlation" >
   <i type="string" name="GGA">PS</i>
   <i type="int" name="VOSKOWN">     0</i>
   <i type="logical" name="LHFCALC"> F  </i>
   <i type="string" name="PRECFOCK"></i>
   <i type="logical" name="LSYMGRAD"> F  </i>
   <i type="logical" name="LHFONE"> F  </i>
   <i type="logical" name="LRHFCALC"> F  </i>
   <i type="logical" name="LTHOMAS"> F  </i>
   <i type="logical" name="LMODELHF"> F  </i>
   <i name="ENCUT4O">     -1.00000000</i>
   <i type="int" name="EXXOEP">     0</i>
   <i type="int" name="FOURORBIT">     0</i>
   <i name="AEXX">      0.00000000</i>
   <i name="HFALPHA">      0.00000000</i>
   <i name="MCALPHA">      0.00000000</i>
   <i name="ALDAX">      1.00000000</i>
   <i name="AGGAX">      1.00000000</i>
   <i name="ALDAC">      1.00000000</i>
   <i name="AGGAC">      1.00000000</i>
   <i type="int" name="NKREDX">     1</i>
   <i type="int" name="NKREDY">     1</i>
   <i type="int" name="NKREDZ">     1</i>
   <i type="logical" name="SHIFTRED"> F  </i>
   <i type="logical" name="ODDONLY"> F  </i>
   <i type="logical" name="EVENONLY"> F  </i>
   <i type="int" name="LMAXFOCK">     0</i>
   <i type="int" name="NMAXFOCKAE">     0</i>
   <i type="logical" name="LFOCKAEDFT"> F  </i>
   <i name="HFSCREEN">      0.00000000</i>
   <i name="HFSCREENC">      0.00000000</i>
   <i type="int" name="NBANDSGWLOW">     0</i>
  </separator>
  <separator name="vdW DFT" >
   <i type="logical" name="LUSE_VDW"> F  </i>
   <i name="Zab_VDW">     -0.84910000</i>
   <i name="PARAM1">      0.12340000</i>
   <i name="PARAM2">      1.00000000</i>
   <i name="PARAM3">      0.00000000</i>
  </separator>
  <separator name="model GW" >
   <i type="int" name="MODEL_GW">     0</i>
   <i name="MODEL_EPS0">     11.69349825</i>
   <i name="MODEL_ALPHA">      1.00000000</i>
  </separator>
  <separator name="linear response parameters" >
   <i type="logical" name="LEPSILON"> F  </i>
   <i type="logical" name="LRPA"> F  </i>
   <i type="logical" name="LNABLA"> F  </i>
   <i type="logical" name="LVEL"> F  </i>
   <i type="int" name="KINTER">     0</i>
   <i name="CSHIFT">      0.10000000</i>
   <i name="OMEGAMAX">     -1.00000000</i>
   <i name="DEG_THRESHOLD">      0.00200000</i>
   <i name="RTIME">     -0.10000000</i>
   <i name="WPLASMAI">      0.00000000</i>
   <v name="DFIELD">      0.00000000      0.00000000      0.00000000</v>
   <v name="WPLASMA">      0.00000000      0.00000000      0.00000000      0.00000000      0.00000000      0.00000000      0.00000000      0.00000000      0.00000000</v>
  </separator>
  <separator name="orbital magnetization" >
   <i type="logical" name="NUCIND"> F  </i>
   <v name="MAGPOS">      0.00000000      0.00000000      0.00000000</v>
   <i type="logical" name="LNICSALL"> T  </i>
   <i type="logical" name="ORBITALMAG"> F  </i>
   <i type="logical" name="LMAGBLOCH"> F  </i>
   <i type="logical" name="LCHIMAG"> F  </i>
   <i type="logical" name="LGAUGE"> T  </i>
   <i type="int" name="MAGATOM">     0</i>
   <v name="MAGDIPOL">      0.00000000      0.00000000      0.00000000</v>
   <v name="AVECCONST">      0.00000000      0.00000000      0.00000000</v>
  </separator>
  <separator name="response functions" >
   <i type="logical" name="LADDER"> F  </i>
   <i type="logical" name="LRPAFORCE"> F  </i>
   <i type="logical" name="LFXC"> F  </i>
   <i type="logical" name="LHARTREE"> T  </i>
   <i type="int" name="IBSE">     0</i>
   <v type="int" name="KPOINT">    -1     0     0     0</v>
   <i type="logical" name="LTCTE"> F  </i>
   <i type="logical" name="LTETE"> F  </i>
   <i type="logical" name="LTRIPLET"> F  </i>
   <i type="logical" name="LFXCEPS"> F  </i>
   <i type="logical" name="LFXHEG"> F  </i>
   <i type="int" name="NATURALO">     2</i>
   <i type="logical" name="L2ORDER"> F  </i>
   <i type="logical" name="LMP2LT"> F  </i>
   <i type="logical" name="LUSEW"> F  </i>
   <i name="ENCUTGW">     -2.00000000</i>
   <i name="ENCUTGWSOFT">     -2.00000000</i>
   <i name="ENCUTLF">     -1.00000000</i>
   <i type="int" name="LMAXMP2">    -1</i>
   <i name="SCISSOR">      0.00000000</i>
   <i type="int" name="NOMEGA">     0</i>
   <i type="int" name="NOMEGAR">     0</i>
   <i type="int" name="NBANDSGW">    -1</i>
   <i type="int" name="NBANDSO">    -1</i>
   <i type="int" name="NBANDSV">    -1</i>
   <i type="int" name="NELM">   200</i>
   <i type="int" name="NELMHF">     1</i>
   <i type="int" name="DIM">     3</i>
   <i type="int" name="ANTIRES">     0</i>
   <i name="OMEGAMAX">    -30.00000000</i>
   <i name="OMEGAMIN">    -30.00000000</i>
   <i name="OMEGATL">   -200.00000000</i>
   <i type="int" name="OMEGAGRID">   140</i>
   <i name="CSHIFT">     -0.10000000</i>
   <i type="logical" name="SELFENERGY"> F  </i>
   <i type="logical" name="LSPECTRAL"> F  </i>
   <i type="logical" name="LSPECTRALGW"> F  </i>
   <i type="logical" name="LSINGLES"> F  </i>
   <i type="logical" name="LFERMIGW"> F  </i>
   <i type="logical" name="ODDONLYGW"> F  </i>
   <i type="logical" name="EVENONLYGW"> F  </i>
   <i type="int" name="NKREDLFX">     1</i>
   <i type="int" name="NKREDLFY">     1</i>
   <i type="int" name="NKREDLFZ">     1</i>
   <i type="int" name="MAXMEM">  2800</i>
   <i type="int" name="TELESCOPE">     0</i>
   <i type="int" name="TAUPAR">     1</i>
   <i type="int" name="OMEGAPAR">    -1</i>
   <i name="LAMBDA">      1.00000000</i>
  </separator>
  <separator name="External order field" >
   <i name="OFIELD_KAPPA">      0.00000000</i>
   <v name="OFIELD_K">      0.00000000      0.00000000      0.00000000</v>
   <i name="OFIELD_Q6_NEAR">      0.00000000</i>
   <i name="OFIELD_Q6_FAR">      0.00000000</i>
   <i name="OFIELD_A">      0.00000000</i>
  </separator>
 </parameters>
 <atominfo>
  <atoms>     144 </atoms>
  <types>       2 </types>
  <array name="atoms" >
   <dimension dim="1">ion</dimension>
   <field type="string">element</field>
   <field type="int">atomtype</field>
   <set>
    <rc><c>Ag</c><c>   1</c></rc>
    <rc><c>Ag</c><c>   1</c></rc>
    <rc><c>Ag</c><c>   1</c></rc>
    <rc><c>Ag</c><c>   1</c></rc>
    <rc><c>Ag</c><c>   1</c></rc>
    <rc><c>Ag</c><c>   1</c></rc>
    <rc><c>Ag</c><c>   1</c></rc>
    <rc><c>Ag</c><c>   1</c></rc>
    <rc><c>Ag</c><c>   1</c></rc>
    <rc><c>Ag</c><c>   1</c></rc>
    <rc><c>Ag</c><c>   1</c></rc>
    <rc><c>Ag</c><c>   1</c></rc>
    <rc><c>Ag</c><c>   1</c></rc>
    <rc><c>Ag</c><c>   1</c></rc>
    <rc><c>Ag</c><c>   1</c></rc>
    <rc><c>Ag</c><c>   1</c></rc>
    <rc><c>Ag</c><c>   1</c></rc>
    <rc><c>Ag</c><c>   1</c></rc>
    <rc><c>Ag</c><c>   1</c></rc>
    <rc><c>Ag</c><c>   1</c></rc>
    <rc><c>Ag</c><c>   1</c></rc>
    <rc><c>Ag</c><c>   1</c></rc>
    <rc><c>Ag</c><c>   1</c></rc>
    <rc><c>Ag</c><c>   1</c></rc>
    <rc><c>Ag</c><c>   1</c></rc>
    <rc><c>Ag</c><c>   1</c></rc>
    <rc><c>Ag</c><c>   1</c></rc>
    <rc><c>Ag</c><c>   1</c></rc>
    <rc><c>Ag</c><c>   1</c></rc>
    <rc><c>Ag</c><c>   1</c></rc>
    <rc><c>Ag</c><c>   1</c></rc>
    <rc><c>Ag</c><c>   1</c></rc>
    <rc><c>Ag</c><c>   1</c></rc>
    <rc><c>Ag</c><c>   1</c></rc>
    <rc><c>Ag</c><c>   1</c></rc>
    <rc><c>Ag</c><c>   1</c></rc>
    <rc><c>Ag</c><c>   1</c></rc>
    <rc><c>Ag</c><c>   1</c></rc>
    <rc><c>Ag</c><c>   1</c></rc>
    <rc><c>Ag</c><c>   1</c></rc>
    <rc><c>Ag</c><c>   1</c></rc>
    <rc><c>Ag</c><c>   1</c></rc>
    <rc><c>Ag</c><c>   1</c></rc>
    <rc><c>Ag</c><c>   1</c></rc>
    <rc><c>Ag</c><c>   1</c></rc>
    <rc><c>Ag</c><c>   1</c></rc>
    <rc><c>Ag</c><c>   1</c></rc>
    <rc><c>Ag</c><c>   1</c></rc>
    <rc><c>Ag</c><c>   1</c></rc>
    <rc><c>Ag</c><c>   1</c></rc>
    <rc><c>Ag</c><c>   1</c></rc>
    <rc><c>Ag</c><c>   1</c></rc>
    <rc><c>Ag</c><c>   1</c></rc>
    <rc><c>Ag</c><c>   1</c></rc>
    <rc><c>Ag</c><c>   1</c></rc>
    <rc><c>Ag</c><c>   1</c></rc>
    <rc><c>Ag</c><c>   1</c></rc>
    <rc><c>Ag</c><c>   1</c></rc>
    <rc><c>Ag</c><c>   1</c></rc>
    <rc><c>Ag</c><c>   1</c></rc>
    <rc><c>Ag</c><c>   1</c></rc>
    <rc><c>Ag</c><c>   1</c></rc>
    <rc><c>Ag</c><c>   1</c></rc>
    <rc><c>Ag</c><c>   1</c></rc>
    <rc><c>Ag</c><c>   1</c></rc>
    <rc><c>Ag</c><c>   1</c></rc>
    <rc><c>Ag</c><c>   1</c></rc>
    <rc><c>Ag</c><c>   1</c></rc>
    <rc><c>Ag</c><c>   1</c></rc>
    <rc><c>Ag</c><c>   1</c></rc>
    <rc><c>Ag</c><c>   1</c></rc>
    <rc><c>Ag</c><c>   1</c></rc>
    <rc><c>Ag</c><c>   1</c></rc>
    <rc><c>Ag</c><c>   1</c></rc>
    <rc><c>Ag</c><c>   1</c></rc>
    <rc><c>Ag</c><c>   1</c></rc>
    <rc><c>Ag</c><c>   1</c></rc>
    <rc><c>Ag</c><c>   1</c></rc>
    <rc><c>Ag</c><c>   1</c></rc>
    <rc><c>Ag</c><c>   1</c></rc>
    <rc><c>Ag</c><c>   1</c></rc>
    <rc><c>Ag</c><c>   1</c></rc>
    <rc><c>Ag</c><c>   1</c></rc>
    <rc><c>Ag</c><c>   1</c></rc>
    <rc><c>Ag</c><c>   1</c></rc>
    <rc><c>Ag</c><c>   1</c></rc>
    <rc><c>Ag</c><c>   1</c></rc>
    <rc><c>Ag</c><c>   1</c></rc>
    <rc><c>Ag</c><c>   1</c></rc>
    <rc><c>Ag</c><c>   1</c></rc>
    <rc><c>Ag</c><c>   1</c></rc>
    <rc><c>Ag</c><c>   1</c></rc>
    <rc><c>Ag</c><c>   1</c></rc>
    <rc><c>Ag</c><c>   1</c></rc>
    <rc><c>Ag</c><c>   1</c></rc>
    <rc><c>Ag</c><c>   1</c></rc>
    <rc><c>Se</c><c>   2</c></rc>
    <rc><c>Se</c><c>   2</c></rc>
    <rc><c>Se</c><c>   2</c></rc>
    <rc><c>Se</c><c>   2</c></rc>
    <rc><c>Se</c><c>   2</c></rc>
    <rc><c>Se</c><c>   2</c></rc>
    <rc><c>Se</c><c>   2</c></rc>
    <rc><c>Se</c><c>   2</c></rc>
    <rc><c>Se</c><c>   2</c></rc>
    <rc><c>Se</c><c>   2</c></rc>
    <rc><c>Se</c><c>   2</c></rc>
    <rc><c>Se</c><c>   2</c></rc>
    <rc><c>Se</c><c>   2</c></rc>
    <rc><c>Se</c><c>   2</c></rc>
    <rc><c>Se</c><c>   2</c></rc>
    <rc><c>Se</c><c>   2</c></rc>
    <rc><c>Se</c><c>   2</c></rc>
    <rc><c>Se</c><c>   2</c></rc>
    <rc><c>Se</c><c>   2</c></rc>
    <rc><c>Se</c><c>   2</c></rc>
    <rc><c>Se</c><c>   2</c></rc>
    <rc><c>Se</c><c>   2</c></rc>
    <rc><c>Se</c><c>   2</c></rc>
    <rc><c>Se</c><c>   2</c></rc>
    <rc><c>Se</c><c>   2</c></rc>
    <rc><c>Se</c><c>   2</c></rc>
    <rc><c>Se</c><c>   2</c></rc>
    <rc><c>Se</c><c>   2</c></rc>
    <rc><c>Se</c><c>   2</c></rc>
    <rc><c>Se</c><c>   2</c></rc>
    <rc><c>Se</c><c>   2</c></rc>
    <rc><c>Se</c><c>   2</c></rc>
    <rc><c>Se</c><c>   2</c></rc>
    <rc><c>Se</c><c>   2</c></rc>
    <rc><c>Se</c><c>   2</c></rc>
    <rc><c>Se</c><c>   2</c></rc>
    <rc><c>Se</c><c>   2</c></rc>
    <rc><c>Se</c><c>   2</c></rc>
    <rc><c>Se</c><c>   2</c></rc>
    <rc><c>Se</c><c>   2</c></rc>
    <rc><c>Se</c><c>   2</c></rc>
    <rc><c>Se</c><c>   2</c></rc>
    <rc><c>Se</c><c>   2</c></rc>
    <rc><c>Se</c><c>   2</c></rc>
    <rc><c>Se</c><c>   2</c></rc>
    <rc><c>Se</c><c>   2</c></rc>
    <rc><c>Se</c><c>   2</c></rc>
    <rc><c>Se</c><c>   2</c></rc>
   </set>
  </array>
  <array name="atomtypes" >
   <dimension dim="1">type</dimension>
   <field type="int">atomspertype</field>
   <field type="string">element</field>
   <field>mass</field>
   <field>valence</field>
   <field type="string">pseudopotential</field>
   <set>
    <rc><c>  96</c><c>Ag</c><c>    107.86800000</c><c>     11.00000000</c><c>  PAW_PBE Ag 02Apr2005                  </c></rc>
    <rc><c>  48</c><c>Se</c><c>     78.96000000</c><c>      6.00000000</c><c>  PAW_PBE Se 06Sep2000                  </c></rc>
   </set>
  </array>
 </atominfo>
 <structure name="initialpos" >
  <crystal>
   <varray name="basis" >
    <v>      14.01039598       0.00139138       0.00000000 </v>
    <v>      -0.00150196      13.76691092       0.00000000 </v>
    <v>       0.00000000       0.00000000      14.55019386 </v>
   </varray>
   <i name="volume">   2806.43958022 </i>
   <varray name="rec_basis" >
    <v>       0.07137557       0.00000779       0.00000000 </v>
    <v>      -0.00000721       0.07263794       0.00000000 </v>
    <v>       0.00000000       0.00000000       0.06872761 </v>
   </varray>
  </crystal>
  <varray name="positions" >
   <v>       0.42987898       0.17167077       0.33247735 </v>
   <v>       0.92987898       0.17167077       0.33247735 </v>
   <v>       0.42987898       0.67167077       0.33247735 </v>
   <v>       0.92987898       0.67167077       0.33247735 </v>
   <v>       0.42987898       0.17167077       0.66581068 </v>
   <v>       0.92987898       0.17167077       0.66581068 </v>
   <v>       0.42987898       0.67167077       0.66581068 </v>
   <v>       0.92987898       0.67167077       0.66581068 </v>
   <v>       0.42987898       0.17167077       0.99914401 </v>
   <v>       0.92987898       0.17167077       0.99914401 </v>
   <v>       0.42987898       0.67167077       0.99914401 </v>
   <v>       0.92987898       0.67167077       0.99914401 </v>
   <v>       0.07012102       0.32832923       0.33247735 </v>
   <v>       0.57012102       0.32832923       0.33247735 </v>
   <v>       0.07012102       0.82832923       0.33247735 </v>
   <v>       0.57012102       0.82832923       0.33247735 </v>
   <v>       0.07012102       0.32832923       0.66581068 </v>
   <v>       0.57012102       0.32832923       0.66581068 </v>
   <v>       0.07012102       0.82832923       0.66581068 </v>
   <v>       0.57012102       0.82832923       0.66581068 </v>
   <v>       0.07012102       0.32832923       0.99914401 </v>
   <v>       0.57012102       0.32832923       0.99914401 </v>
   <v>       0.07012102       0.82832923       0.99914401 </v>
   <v>       0.57012102       0.82832923       0.99914401 </v>
   <v>       0.32012053       0.42167367       0.05641075 </v>
   <v>       0.82012053       0.42167367       0.05641075 </v>
   <v>       0.32012053       0.92167367       0.05641075 </v>
   <v>       0.82012053       0.92167367       0.05641075 </v>
   <v>       0.32012053       0.42167367       0.38974408 </v>
   <v>       0.82012053       0.42167367       0.38974408 </v>
   <v>       0.32012053       0.92167367       0.38974408 </v>
   <v>       0.82012053       0.92167367       0.38974408 </v>
   <v>       0.32012053       0.42167367       0.72307741 </v>
   <v>       0.82012053       0.42167367       0.72307741 </v>
   <v>       0.32012053       0.92167367       0.72307741 </v>
   <v>       0.82012053       0.92167367       0.72307741 </v>
   <v>       0.17987947       0.07832633       0.05641075 </v>
   <v>       0.67987947       0.07832633       0.05641075 </v>
   <v>       0.17987947       0.57832633       0.05641075 </v>
   <v>       0.67987947       0.57832633       0.05641075 </v>
   <v>       0.17987947       0.07832633       0.38974408 </v>
   <v>       0.67987947       0.07832633       0.38974408 </v>
   <v>       0.17987947       0.57832633       0.38974408 </v>
   <v>       0.67987947       0.57832633       0.38974408 </v>
   <v>       0.17987947       0.07832633       0.72307741 </v>
   <v>       0.67987947       0.07832633       0.72307741 </v>
   <v>       0.17987947       0.57832633       0.72307741 </v>
   <v>       0.67987947       0.57832633       0.72307741 </v>
   <v>       0.17987776       0.32832369       0.16580856 </v>
   <v>       0.67987776       0.32832369       0.16580856 </v>
   <v>       0.17987776       0.82832369       0.16580856 </v>
   <v>       0.67987776       0.82832369       0.16580856 </v>
   <v>       0.17987776       0.32832369       0.49914189 </v>
   <v>       0.67987776       0.32832369       0.49914189 </v>
   <v>       0.17987776       0.82832369       0.49914189 </v>
   <v>       0.67987776       0.82832369       0.49914189 </v>
   <v>       0.17987776       0.32832369       0.83247522 </v>
   <v>       0.67987776       0.32832369       0.83247522 </v>
   <v>       0.17987776       0.82832369       0.83247522 </v>
   <v>       0.67987776       0.82832369       0.83247522 </v>
   <v>       0.32012224       0.17167631       0.16580856 </v>
   <v>       0.82012224       0.17167631       0.16580856 </v>
   <v>       0.32012224       0.67167631       0.16580856 </v>
   <v>       0.82012224       0.67167631       0.16580856 </v>
   <v>       0.32012224       0.17167631       0.49914189 </v>
   <v>       0.82012224       0.17167631       0.49914189 </v>
   <v>       0.32012224       0.67167631       0.49914189 </v>
   <v>       0.82012224       0.67167631       0.49914189 </v>
   <v>       0.32012224       0.17167631       0.83247522 </v>
   <v>       0.82012224       0.17167631       0.83247522 </v>
   <v>       0.32012224       0.67167631       0.83247522 </v>
   <v>       0.82012224       0.67167631       0.83247522 </v>
   <v>       0.42987656       0.42167494       0.22376727 </v>
   <v>       0.92987656       0.42167494       0.22308000 </v>
   <v>       0.42987656       0.92167494       0.22308000 </v>
   <v>       0.92987656       0.92167494       0.22308000 </v>
   <v>       0.42987656       0.42167494       0.55641333 </v>
   <v>       0.92987656       0.42167494       0.55641333 </v>
   <v>       0.42987656       0.92167494       0.55641333 </v>
   <v>       0.92987656       0.92167494       0.55641333 </v>
   <v>       0.42987656       0.42167494       0.88974666 </v>
   <v>       0.92987656       0.42167494       0.88974666 </v>
   <v>       0.42987656       0.92167494       0.88974666 </v>
   <v>       0.92987656       0.92167494       0.88974666 </v>
   <v>       0.07012344       0.07832506       0.22308000 </v>
   <v>       0.57012344       0.07832506       0.22308000 </v>
   <v>       0.07012344       0.57832506       0.22308000 </v>
   <v>       0.57012344       0.57832506       0.22308000 </v>
   <v>       0.07012344       0.07832506       0.55641333 </v>
   <v>       0.57012344       0.07832506       0.55641333 </v>
   <v>       0.07012344       0.57832506       0.55641333 </v>
   <v>       0.57012344       0.57832506       0.55641333 </v>
   <v>       0.07012344       0.07832506       0.88974666 </v>
   <v>       0.57012344       0.07832506       0.88974666 </v>
   <v>       0.07012344       0.57832506       0.88974666 </v>
   <v>       0.57012344       0.57832506       0.88974666 </v>
   <v>       0.00000000       0.00000000       0.05479365 </v>
   <v>       0.50000000       0.00000000       0.05479365 </v>
   <v>       0.00000000       0.50000000       0.05479365 </v>
   <v>       0.50000000       0.50000000       0.05479365 </v>
   <v>       0.00000000       0.00000000       0.38812698 </v>
   <v>       0.50000000       0.00000000       0.38812698 </v>
   <v>       0.00000000       0.50000000       0.38812698 </v>
   <v>       0.50000000       0.50000000       0.38812698 </v>
   <v>       0.00000000       0.00000000       0.72146032 </v>
   <v>       0.50000000       0.00000000       0.72146032 </v>
   <v>       0.00000000       0.50000000       0.72146032 </v>
   <v>       0.50000000       0.50000000       0.72146032 </v>
   <v>       0.25000000       0.00000000       0.22145206 </v>
   <v>       0.75000000       0.00000000       0.22145206 </v>
   <v>       0.25000000       0.50000000       0.22145206 </v>
   <v>       0.75000000       0.50000000       0.22145206 </v>
   <v>       0.25000000       0.00000000       0.55478539 </v>
   <v>       0.75000000       0.00000000       0.55478539 </v>
   <v>       0.25000000       0.50000000       0.55478539 </v>
   <v>       0.75000000       0.50000000       0.55478539 </v>
   <v>       0.25000000       0.00000000       0.88811873 </v>
   <v>       0.75000000       0.00000000       0.88811873 </v>
   <v>       0.25000000       0.50000000       0.88811873 </v>
   <v>       0.75000000       0.50000000       0.88811873 </v>
   <v>       0.00000000       0.25000000       0.16743769 </v>
   <v>       0.50000000       0.25000000       0.16743769 </v>
   <v>       0.00000000       0.75000000       0.16743769 </v>
   <v>       0.50000000       0.75000000       0.16743769 </v>
   <v>       0.00000000       0.25000000       0.50077102 </v>
   <v>       0.50000000       0.25000000       0.50077102 </v>
   <v>       0.00000000       0.75000000       0.50077102 </v>
   <v>       0.50000000       0.75000000       0.50077102 </v>
   <v>       0.00000000       0.25000000       0.83410435 </v>
   <v>       0.50000000       0.25000000       0.83410435 </v>
   <v>       0.00000000       0.75000000       0.83410435 </v>
   <v>       0.50000000       0.75000000       0.83410435 </v>
   <v>       0.25000000       0.25000000       0.00076332 </v>
   <v>       0.75000000       0.25000000       0.00076332 </v>
   <v>       0.25000000       0.75000000       0.00076332 </v>
   <v>       0.75000000       0.75000000       0.00076332 </v>
   <v>       0.25000000       0.25000000       0.33409665 </v>
   <v>       0.75000000       0.25000000       0.33409665 </v>
   <v>       0.25000000       0.75000000       0.33409665 </v>
   <v>       0.75000000       0.75000000       0.33409665 </v>
   <v>       0.25000000       0.25000000       0.66742999 </v>
   <v>       0.75000000       0.25000000       0.66742999 </v>
   <v>       0.25000000       0.75000000       0.66742999 </v>
   <v>       0.75000000       0.75000000       0.66742999 </v>
  </varray>
 </structure>
 <calculation>
  <scstep>
   <time name="dav">  908.50  910.97</time>
   <time name="total">  911.97  914.46</time>
   <energy>
    <i name="alphaZ">   4890.97834259 </i>
    <i name="ewald"> -98842.86096778 </i>
    <i name="hartreedc"> -25789.40285313 </i>
    <i name="XCdc">   -889.86169529 </i>
    <i name="pawpsdc"> 106286.73805879 </i>
    <i name="pawaedc">-101298.59693205 </i>
    <i name="eentropy">     -0.04297985 </i>
    <i name="bandstr">  14366.13950904 </i>
    <i name="atom"> 111881.97810035 </i>
    <i name="e_fr_energy">  10605.06858267 </i>
    <i name="e_wo_entrp">  10605.11156252 </i>
    <i name="e_0_energy">  10605.09007260 </i>
   </energy>
  </scstep>
  <scstep>
   <time name="dav">  944.45  946.86</time>
   <time name="total">  944.46  946.87</time>
   <energy>
    <i name="e_fr_energy">    151.05932374 </i>
    <i name="e_wo_entrp">    151.07172339 </i>
    <i name="e_0_energy">    151.06552356 </i>
   </energy>
  </scstep>
  <scstep>
   <time name="dav">  984.44  986.92</time>
   <time name="total">  984.44  986.92</time>
   <energy>
    <i name="e_fr_energy">   -517.96914798 </i>
    <i name="e_wo_entrp">   -517.96300718 </i>
    <i name="e_0_energy">   -517.96607758 </i>
   </energy>
  </scstep>
  <scstep>
   <time name="dav">  963.66  966.16</time>
   <time name="total">  963.66  966.17</time>
   <energy>
    <i name="e_fr_energy">   -535.41828825 </i>
    <i name="e_wo_entrp">   -535.41282088 </i>
    <i name="e_0_energy">   -535.41555456 </i>
   </energy>
  </scstep>
  <scstep>
   <time name="dav">  979.28  981.79</time>
   <time name="total">  993.88  996.43</time>
   <energy>
    <i name="e_fr_energy">   -535.67163197 </i>
    <i name="e_wo_entrp">   -535.66615672 </i>
    <i name="e_0_energy">   -535.66889435 </i>
   </energy>
  </scstep>
  <scstep>
   <time name="dav">  948.60  951.02</time>
   <time name="total">  966.39  968.86</time>
   <energy>
    <i name="e_fr_energy">   -504.98301607 </i>
    <i name="e_wo_entrp">   -504.96752855 </i>
    <i name="e_0_energy">   -504.97527231 </i>
   </energy>
  </scstep>
  <scstep>
   <time name="dav">  954.24  956.66</time>
   <time name="total">  971.79  974.26</time>
   <energy>
    <i name="e_fr_energy">   -505.65759645 </i>
    <i name="e_wo_entrp">   -505.64183490 </i>
    <i name="e_0_energy">   -505.64971568 </i>
   </energy>
  </scstep>
  <scstep>
   <time name="dav">  979.92  982.43</time>
   <time name="total">  997.51 1000.07</time>
   <energy>
    <i name="e_fr_energy">   -505.18195523 </i>
    <i name="e_wo_entrp">   -505.16734032 </i>
    <i name="e_0_energy">   -505.17464778 </i>
   </energy>
  </scstep>
  <scstep>
   <time name="dav">  958.31  960.77</time>
   <time name="total">  976.10  978.61</time>
   <energy>
    <i name="e_fr_energy">   -505.12626184 </i>
    <i name="e_wo_entrp">   -505.11103565 </i>
    <i name="e_0_energy">   -505.11864874 </i>
   </energy>
  </scstep>
  <scstep>
   <time name="dav">  943.41  945.83</time>
   <time name="total">  961.21  963.68</time>
   <energy>
    <i name="e_fr_energy">   -505.12839300 </i>
    <i name="e_wo_entrp">   -505.11310887 </i>
    <i name="e_0_energy">   -505.12075093 </i>
   </energy>
  </scstep>
  <scstep>
   <time name="dav">  968.08  970.55</time>
   <time name="total">  986.30  988.82</time>
   <energy>
    <i name="e_fr_energy">   -505.12826697 </i>
    <i name="e_wo_entrp">   -505.11305106 </i>
    <i name="e_0_energy">   -505.12065901 </i>
   </energy>
  </scstep>
  <scstep>
   <time name="dav">  964.06  966.53</time>
   <time name="total">  982.14  984.70</time>
   <energy>
    <i name="e_fr_energy">   -505.12822487 </i>
    <i name="e_wo_entrp">   -505.11298871 </i>
    <i name="e_0_energy">   -505.12060679 </i>
   </energy>
  </scstep>
  <scstep>
   <time name="dav"> 1010.91 1013.27</time>
   <time name="total"> 1028.91 1031.32</time>
   <energy>
    <i name="e_fr_energy">   -505.12822484 </i>
    <i name="e_wo_entrp">   -505.11299165 </i>
    <i name="e_0_energy">   -505.12060824 </i>
   </energy>
  </scstep>
  <scstep>
   <time name="dav">  951.80  954.14</time>
   <time name="total">  969.85  972.24</time>
   <energy>
    <i name="e_fr_energy">   -505.12822371 </i>
    <i name="e_wo_entrp">   -505.11299159 </i>
    <i name="e_0_energy">   -505.12060765 </i>
   </energy>
  </scstep>
  <scstep>
   <time name="dav">  979.97  982.50</time>
   <time name="total">  998.03 1000.61</time>
   <energy>
    <i name="e_fr_energy">   -505.12822219 </i>
    <i name="e_wo_entrp">   -505.11299031 </i>
    <i name="e_0_energy">   -505.12060625 </i>
   </energy>
  </scstep>
  <scstep>
   <time name="dav">  900.51  902.71</time>
   <time name="total">  918.35  920.59</time>
   <energy>
    <i name="e_fr_energy">   -505.12822221 </i>
    <i name="e_wo_entrp">   -505.11299051 </i>
    <i name="e_0_energy">   -505.12060636 </i>
   </energy>
  </scstep>
  <scstep>
   <time name="dav">  593.40  594.79</time>
   <time name="total">  611.59  613.03</time>
   <energy>
    <i name="e_fr_energy">   -505.12822223 </i>
    <i name="e_wo_entrp">   -505.11299046 </i>
    <i name="e_0_energy">   -505.12060635 </i>
   </energy>
  </scstep>
  <scstep>
   <time name="dav">  446.63  447.75</time>
   <time name="total">  461.40  462.55</time>
   <energy>
    <i name="e_fr_energy">   -505.12822221 </i>
    <i name="e_wo_entrp">   -505.11299042 </i>
    <i name="e_0_energy">   -505.12060632 </i>
   </energy>
  </scstep>
  <scstep>
   <time name="dav">  505.60  506.97</time>
   <time name="total">  508.59  509.97</time>
   <energy>
    <i name="alphaZ">   4890.97834259 </i>
    <i name="ewald"> -98842.86096778 </i>
    <i name="hartreedc"> -24658.21956360 </i>
    <i name="XCdc">   -922.44848671 </i>
    <i name="pawpsdc"> 122252.73311359 </i>
    <i name="pawaedc">-117444.99577319 </i>
    <i name="eentropy">     -0.01523180 </i>
    <i name="bandstr">   2337.72224435 </i>
    <i name="atom"> 111881.97810035 </i>
    <i name="e_fr_energy">   -505.12822221 </i>
    <i name="e_wo_entrp">   -505.11299041 </i>
    <i name="e_0_energy">   -505.12060631 </i>
   </energy>
  </scstep>
  <structure>
   <crystal>
    <varray name="basis" >
     <v>      14.01039598       0.00139138       0.00000000 </v>
     <v>      -0.00150196      13.76691092       0.00000000 </v>
     <v>       0.00000000       0.00000000      14.55019386 </v>
    </varray>
    <i name="volume">   2806.43958022 </i>
    <varray name="rec_basis" >
     <v>       0.07137557       0.00000779       0.00000000 </v>
     <v>      -0.00000721       0.07263794       0.00000000 </v>
     <v>       0.00000000       0.00000000       0.06872761 </v>
    </varray>
   </crystal>
   <varray name="positions" >
    <v>       0.42987898       0.17167077       0.33247735 </v>
    <v>       0.92987898       0.17167077       0.33247735 </v>
    <v>       0.42987898       0.67167077       0.33247735 </v>
    <v>       0.92987898       0.67167077       0.33247735 </v>
    <v>       0.42987898       0.17167077       0.66581068 </v>
    <v>       0.92987898       0.17167077       0.66581068 </v>
    <v>       0.42987898       0.67167077       0.66581068 </v>
    <v>       0.92987898       0.67167077       0.66581068 </v>
    <v>       0.42987898       0.17167077       0.99914401 </v>
    <v>       0.92987898       0.17167077       0.99914401 </v>
    <v>       0.42987898       0.67167077       0.99914401 </v>
    <v>       0.92987898       0.67167077       0.99914401 </v>
    <v>       0.07012102       0.32832923       0.33247735 </v>
    <v>       0.57012102       0.32832923       0.33247735 </v>
    <v>       0.07012102       0.82832923       0.33247735 </v>
    <v>       0.57012102       0.82832923       0.33247735 </v>
    <v>       0.07012102       0.32832923       0.66581068 </v>
    <v>       0.57012102       0.32832923       0.66581068 </v>
    <v>       0.07012102       0.82832923       0.66581068 </v>
    <v>       0.57012102       0.82832923       0.66581068 </v>
    <v>       0.07012102       0.32832923       0.99914401 </v>
    <v>       0.57012102       0.32832923       0.99914401 </v>
    <v>       0.07012102       0.82832923       0.99914401 </v>
    <v>       0.57012102       0.82832923       0.99914401 </v>
    <v>       0.32012053       0.42167367       0.05641075 </v>
    <v>       0.82012053       0.42167367       0.05641075 </v>
    <v>       0.32012053       0.92167367       0.05641075 </v>
    <v>       0.82012053       0.92167367       0.05641075 </v>
    <v>       0.32012053       0.42167367       0.38974408 </v>
    <v>       0.82012053       0.42167367       0.38974408 </v>
    <v>       0.32012053       0.92167367       0.38974408 </v>
    <v>       0.82012053       0.92167367       0.38974408 </v>
    <v>       0.32012053       0.42167367       0.72307741 </v>
    <v>       0.82012053       0.42167367       0.72307741 </v>
    <v>       0.32012053       0.92167367       0.72307741 </v>
    <v>       0.82012053       0.92167367       0.72307741 </v>
    <v>       0.17987947       0.07832633       0.05641075 </v>
    <v>       0.67987947       0.07832633       0.05641075 </v>
    <v>       0.17987947       0.57832633       0.05641075 </v>
    <v>       0.67987947       0.57832633       0.05641075 </v>
    <v>       0.17987947       0.07832633       0.38974408 </v>
    <v>       0.67987947       0.07832633       0.38974408 </v>
    <v>       0.17987947       0.57832633       0.38974408 </v>
    <v>       0.67987947       0.57832633       0.38974408 </v>
    <v>       0.17987947       0.07832633       0.72307741 </v>
    <v>       0.67987947       0.07832633       0.72307741 </v>
    <v>       0.17987947       0.57832633       0.72307741 </v>
    <v>       0.67987947       0.57832633       0.72307741 </v>
    <v>       0.17987776       0.32832369       0.16580856 </v>
    <v>       0.67987776       0.32832369       0.16580856 </v>
    <v>       0.17987776       0.82832369       0.16580856 </v>
    <v>       0.67987776       0.82832369       0.16580856 </v>
    <v>       0.17987776       0.32832369       0.49914189 </v>
    <v>       0.67987776       0.32832369       0.49914189 </v>
    <v>       0.17987776       0.82832369       0.49914189 </v>
    <v>       0.67987776       0.82832369       0.49914189 </v>
    <v>       0.17987776       0.32832369       0.83247522 </v>
    <v>       0.67987776       0.32832369       0.83247522 </v>
    <v>       0.17987776       0.82832369       0.83247522 </v>
    <v>       0.67987776       0.82832369       0.83247522 </v>
    <v>       0.32012224       0.17167631       0.16580856 </v>
    <v>       0.82012224       0.17167631       0.16580856 </v>
    <v>       0.32012224       0.67167631       0.16580856 </v>
    <v>       0.82012224       0.67167631       0.16580856 </v>
    <v>       0.32012224       0.17167631       0.49914189 </v>
    <v>       0.82012224       0.17167631       0.49914189 </v>
    <v>       0.32012224       0.67167631       0.49914189 </v>
    <v>       0.82012224       0.67167631       0.49914189 </v>
    <v>       0.32012224       0.17167631       0.83247522 </v>
    <v>       0.82012224       0.17167631       0.83247522 </v>
    <v>       0.32012224       0.67167631       0.83247522 </v>
    <v>       0.82012224       0.67167631       0.83247522 </v>
    <v>       0.42987656       0.42167494       0.22376727 </v>
    <v>       0.92987656       0.42167494       0.22308000 </v>
    <v>       0.42987656       0.92167494       0.22308000 </v>
    <v>       0.92987656       0.92167494       0.22308000 </v>
    <v>       0.42987656       0.42167494       0.55641333 </v>
    <v>       0.92987656       0.42167494       0.55641333 </v>
    <v>       0.42987656       0.92167494       0.55641333 </v>
    <v>       0.92987656       0.92167494       0.55641333 </v>
    <v>       0.42987656       0.42167494       0.88974666 </v>
    <v>       0.92987656       0.42167494       0.88974666 </v>
    <v>       0.42987656       0.92167494       0.88974666 </v>
    <v>       0.92987656       0.92167494       0.88974666 </v>
    <v>       0.07012344       0.07832506       0.22308000 </v>
    <v>       0.57012344       0.07832506       0.22308000 </v>
    <v>       0.07012344       0.57832506       0.22308000 </v>
    <v>       0.57012344       0.57832506       0.22308000 </v>
    <v>       0.07012344       0.07832506       0.55641333 </v>
    <v>       0.57012344       0.07832506       0.55641333 </v>
    <v>       0.07012344       0.57832506       0.55641333 </v>
    <v>       0.57012344       0.57832506       0.55641333 </v>
    <v>       0.07012344       0.07832506       0.88974666 </v>
    <v>       0.57012344       0.07832506       0.88974666 </v>
    <v>       0.07012344       0.57832506       0.88974666 </v>
    <v>       0.57012344       0.57832506       0.88974666 </v>
    <v>       0.00000000       0.00000000       0.05479365 </v>
    <v>       0.50000000       0.00000000       0.05479365 </v>
    <v>       0.00000000       0.50000000       0.05479365 </v>
    <v>       0.50000000       0.50000000       0.05479365 </v>
    <v>       0.00000000       0.00000000       0.38812698 </v>
    <v>       0.50000000       0.00000000       0.38812698 </v>
    <v>       0.00000000       0.50000000       0.38812698 </v>
    <v>       0.50000000       0.50000000       0.38812698 </v>
    <v>       0.00000000       0.00000000       0.72146032 </v>
    <v>       0.50000000       0.00000000       0.72146032 </v>
    <v>       0.00000000       0.50000000       0.72146032 </v>
    <v>       0.50000000       0.50000000       0.72146032 </v>
    <v>       0.25000000       0.00000000       0.22145206 </v>
    <v>       0.75000000       0.00000000       0.22145206 </v>
    <v>       0.25000000       0.50000000       0.22145206 </v>
    <v>       0.75000000       0.50000000       0.22145206 </v>
    <v>       0.25000000       0.00000000       0.55478539 </v>
    <v>       0.75000000       0.00000000       0.55478539 </v>
    <v>       0.25000000       0.50000000       0.55478539 </v>
    <v>       0.75000000       0.50000000       0.55478539 </v>
    <v>       0.25000000       0.00000000       0.88811873 </v>
    <v>       0.75000000       0.00000000       0.88811873 </v>
    <v>       0.25000000       0.50000000       0.88811873 </v>
    <v>       0.75000000       0.50000000       0.88811873 </v>
    <v>       0.00000000       0.25000000       0.16743769 </v>
    <v>       0.50000000       0.25000000       0.16743769 </v>
    <v>       0.00000000       0.75000000       0.16743769 </v>
    <v>       0.50000000       0.75000000       0.16743769 </v>
    <v>       0.00000000       0.25000000       0.50077102 </v>
    <v>       0.50000000       0.25000000       0.50077102 </v>
    <v>       0.00000000       0.75000000       0.50077102 </v>
    <v>       0.50000000       0.75000000       0.50077102 </v>
    <v>       0.00000000       0.25000000       0.83410435 </v>
    <v>       0.50000000       0.25000000       0.83410435 </v>
    <v>       0.00000000       0.75000000       0.83410435 </v>
    <v>       0.50000000       0.75000000       0.83410435 </v>
    <v>       0.25000000       0.25000000       0.00076332 </v>
    <v>       0.75000000       0.25000000       0.00076332 </v>
    <v>       0.25000000       0.75000000       0.00076332 </v>
    <v>       0.75000000       0.75000000       0.00076332 </v>
    <v>       0.25000000       0.25000000       0.33409665 </v>
    <v>       0.75000000       0.25000000       0.33409665 </v>
    <v>       0.25000000       0.75000000       0.33409665 </v>
    <v>       0.75000000       0.75000000       0.33409665 </v>
    <v>       0.25000000       0.25000000       0.66742999 </v>
    <v>       0.75000000       0.25000000       0.66742999 </v>
    <v>       0.25000000       0.75000000       0.66742999 </v>
    <v>       0.75000000       0.75000000       0.66742999 </v>
   </varray>
  </structure>
  <varray name="forces" >
   <v>       0.00002074       0.00021128      -0.00031161 </v>
   <v>       0.00007584       0.00005820      -0.00007609 </v>
   <v>      -0.00013944       0.00091064      -0.00031052 </v>
   <v>       0.00000283       0.00005199      -0.00007612 </v>
   <v>       0.00000025       0.00006142       0.00004292 </v>
   <v>      -0.00003333       0.00007823      -0.00001037 </v>
   <v>      -0.00005490       0.00008405       0.00004347 </v>
   <v>      -0.00003403       0.00007585      -0.00001049 </v>
   <v>       0.00003044       0.00024382       0.00013216 </v>
   <v>      -0.00003314       0.00007841      -0.00003491 </v>
   <v>       0.00012178      -0.00058472       0.00013191 </v>
   <v>      -0.00003755       0.00005272      -0.00003484 </v>
   <v>       0.00001230      -0.00004030      -0.00004637 </v>
   <v>       0.00705818      -0.00604692       0.00348780 </v>
   <v>      -0.00001265      -0.00007418      -0.00004246 </v>
   <v>       0.00002956      -0.00004179      -0.00015019 </v>
   <v>      -0.00000202      -0.00008291       0.00000917 </v>
   <v>       0.00003671      -0.00010331       0.00001393 </v>
   <v>       0.00001131      -0.00006930      -0.00002822 </v>
   <v>       0.00001490      -0.00011804       0.00003590 </v>
   <v>       0.00009650      -0.00002122       0.00001744 </v>
   <v>      -0.00081996       0.00079856       0.00116960 </v>
   <v>       0.00004337      -0.00006834      -0.00003087 </v>
   <v>       0.00002438      -0.00004397      -0.00006288 </v>
   <v>       0.00766540       0.00073968       0.01009827 </v>
   <v>      -0.00001553       0.00001175       0.00000641 </v>
   <v>       0.00007113       0.00001905       0.00003576 </v>
   <v>       0.00000986       0.00000102       0.00004709 </v>
   <v>      -0.00797510      -0.00066911       0.01054279 </v>
   <v>       0.00011686       0.00003856       0.00000625 </v>
   <v>       0.00002432       0.00001483       0.00003588 </v>
   <v>       0.00001930       0.00005656       0.00004718 </v>
   <v>       0.00003159       0.00001255       0.00028694 </v>
   <v>       0.00002638       0.00002692       0.00018111 </v>
   <v>       0.00003024       0.00002701       0.00007837 </v>
   <v>       0.00001464       0.00002901       0.00007179 </v>
   <v>      -0.00000647       0.00000144       0.00008137 </v>
   <v>      -0.00005182       0.00003058       0.00005661 </v>
   <v>       0.00010322      -0.00016494      -0.00008830 </v>
   <v>      -0.00053271      -0.00014194      -0.00003214 </v>
   <v>      -0.00003485      -0.00012621       0.00005692 </v>
   <v>       0.00000003      -0.00009140       0.00008164 </v>
   <v>      -0.00019638       0.00003184      -0.00003341 </v>
   <v>       0.00084603       0.00002452      -0.00008990 </v>
   <v>      -0.00001872      -0.00005591       0.00007159 </v>
   <v>      -0.00002182      -0.00003898       0.00007156 </v>
   <v>      -0.00001198       0.00000269       0.00034797 </v>
   <v>      -0.00000256      -0.00000722       0.00034762 </v>
   <v>       0.00009434       0.00020778      -0.00016680 </v>
   <v>      -0.00026760       0.00003795      -0.00016562 </v>
   <v>       0.00000946      -0.00000685      -0.00002930 </v>
   <v>      -0.00002965      -0.00000828      -0.00002918 </v>
   <v>      -0.00005481      -0.00012869      -0.00001415 </v>
   <v>      -0.00000920      -0.00004829      -0.00001366 </v>
   <v>      -0.00001117      -0.00002488       0.00000224 </v>
   <v>       0.00004588       0.00004276       0.00000245 </v>
   <v>       0.00000646       0.00009081       0.00003964 </v>
   <v>      -0.00003471      -0.00000554       0.00003952 </v>
   <v>      -0.00003182       0.00000853      -0.00000905 </v>
   <v>      -0.00004255      -0.00001215      -0.00000910 </v>
   <v>       0.00034484       0.00019243      -0.00022985 </v>
   <v>       0.00004358       0.00000829      -0.00003265 </v>
   <v>       0.00004235      -0.00017596      -0.00022847 </v>
   <v>      -0.00001242      -0.00000971      -0.00003215 </v>
   <v>      -0.00000892       0.00000166      -0.00003237 </v>
   <v>      -0.00000882       0.00000577       0.00000774 </v>
   <v>      -0.00006170       0.00008412      -0.00003216 </v>
   <v>       0.00004256       0.00009565       0.00000786 </v>
   <v>       0.00008239       0.00001658       0.00002146 </v>
   <v>       0.00000487       0.00000339       0.00001031 </v>
   <v>       0.00001575      -0.00005119       0.00002159 </v>
   <v>      -0.00002124      -0.00006677       0.00001022 </v>
   <v>      -0.00189933      -0.00393326      -0.03736586 </v>
   <v>       0.00002021       0.00001658       0.00004202 </v>
   <v>       0.00007278      -0.00001011       0.00000484 </v>
   <v>      -0.00000739       0.00001540       0.00000096 </v>
   <v>      -0.00011114      -0.00022340       0.00070876 </v>
   <v>       0.00015412       0.00001742       0.00006850 </v>
   <v>       0.00000317       0.00022968       0.00007747 </v>
   <v>       0.00002053       0.00002399       0.00001294 </v>
   <v>       0.00018662       0.00021543       0.00070115 </v>
   <v>      -0.00008954       0.00003633       0.00006934 </v>
   <v>       0.00005642      -0.00001794       0.00007795 </v>
   <v>      -0.00000132       0.00000790       0.00001302 </v>
   <v>       0.00002438       0.00000387      -0.00001577 </v>
   <v>      -0.00017837       0.00086657      -0.00028419 </v>
   <v>       0.00010597       0.00000951       0.00002725 </v>
   <v>       0.00021484       0.00018903      -0.00233837 </v>
   <v>      -0.00000202      -0.00001426       0.00001812 </v>
   <v>      -0.00001393      -0.00008862       0.00004084 </v>
   <v>      -0.00011434       0.00000795       0.00004907 </v>
   <v>       0.00065266       0.00084913       0.00137942 </v>
   <v>      -0.00000266      -0.00000885       0.00001810 </v>
   <v>      -0.00000618      -0.00000687       0.00004082 </v>
   <v>       0.00007281       0.00000229       0.00004999 </v>
   <v>      -0.00074830      -0.00067187       0.00137166 </v>
   <v>       0.00001610      -0.00000789      -0.00007869 </v>
   <v>      -0.00007965      -0.00023599      -0.00031287 </v>
   <v>       0.00006022       0.00006535      -0.00002260 </v>
   <v>      -0.00369695      -0.00300117       0.00596307 </v>
   <v>      -0.00004974      -0.00000780      -0.00005855 </v>
   <v>      -0.00007297      -0.00005746       0.00013036 </v>
   <v>      -0.00021082      -0.00008764       0.00001938 </v>
   <v>       0.00295744       0.00584087       0.00801998 </v>
   <v>      -0.00001636      -0.00001831      -0.00010778 </v>
   <v>      -0.00001332       0.00004524      -0.00025280 </v>
   <v>      -0.00000098      -0.00001756      -0.00038374 </v>
   <v>      -0.00001196      -0.00001147      -0.00051808 </v>
   <v>      -0.00006953       0.00003126       0.00005053 </v>
   <v>       0.00003880       0.00000400       0.00004949 </v>
   <v>      -0.00088661      -0.00019694      -0.00219482 </v>
   <v>      -0.00009110      -0.00002568       0.00014683 </v>
   <v>      -0.00001734       0.00002562      -0.00000612 </v>
   <v>      -0.00001788       0.00002287      -0.00000318 </v>
   <v>       0.00033507      -0.00026623      -0.00073681 </v>
   <v>      -0.00070641       0.00026124      -0.00022958 </v>
   <v>      -0.00004635      -0.00000268      -0.00003543 </v>
   <v>       0.00001987       0.00000686      -0.00001382 </v>
   <v>      -0.00036378       0.00028694      -0.00074385 </v>
   <v>       0.00056432      -0.00015563      -0.00024745 </v>
   <v>      -0.00010576      -0.00006840       0.00003465 </v>
   <v>      -0.00252813       0.00497331       0.00084028 </v>
   <v>      -0.00002773      -0.00000479       0.00002075 </v>
   <v>      -0.00006557       0.00010379       0.00029775 </v>
   <v>       0.00003323      -0.00001216      -0.00004050 </v>
   <v>       0.00004887       0.00006482       0.00021350 </v>
   <v>       0.00002548      -0.00000485      -0.00003332 </v>
   <v>       0.00027861      -0.00078903      -0.00021447 </v>
   <v>       0.00001752      -0.00000929      -0.00008013 </v>
   <v>      -0.00003216      -0.00008013      -0.00014996 </v>
   <v>      -0.00000062      -0.00001388      -0.00005432 </v>
   <v>       0.00004258       0.00014709      -0.00041651 </v>
   <v>       0.00012756       0.00050476       0.00051593 </v>
   <v>      -0.00005548      -0.00001049      -0.00000154 </v>
   <v>      -0.00000160      -0.00002615       0.00016555 </v>
   <v>       0.00009761       0.00001906       0.00008874 </v>
   <v>      -0.00048302      -0.00031809       0.00001258 </v>
   <v>      -0.00024461       0.00010561       0.00020782 </v>
   <v>       0.00017668       0.00000631       0.00010690 </v>
   <v>      -0.00010567      -0.00004063       0.00007363 </v>
   <v>       0.00003659       0.00002704      -0.00000020 </v>
   <v>       0.00004101       0.00004796      -0.00001196 </v>
   <v>       0.00000564      -0.00005654      -0.00009108 </v>
   <v>       0.00002794      -0.00001890       0.00000816 </v>
  </varray>
  <varray name="stress" >
   <v>      -0.15769690       0.00024302      -0.00094414 </v>
   <v>       0.00024307      -0.15902273       0.00176929 </v>
   <v>      -0.00094414       0.00176934      -0.15336899 </v>
  </varray>
  <energy>
   <i name="e_fr_energy">   -505.12822221 </i>
   <i name="e_wo_entrp">   -505.12060631 </i>
   <i name="e_0_energy">     -0.01523180 </i>
  </energy>
  <time name="totalsc">18785.6218833.91</time>
  <eigenvalues>
   <array>
    <dimension dim="1">band</dimension>
    <dimension dim="2">kpoint</dimension>
    <dimension dim="3">spin</dimension>
    <field>eigene</field>
    <field>occ</field>
    <set>
     <set comment="spin 1">
      <set comment="kpoint 1">
       <r>   -7.4639    1.0000 </r>
       <r>   -7.2297    1.0000 </r>
       <r>   -7.2293    1.0000 </r>
       <r>   -7.2157    1.0000 </r>
       <r>   -7.2156    1.0000 </r>
       <r>   -7.1644    1.0000 </r>
       <r>   -7.1642    1.0000 </r>
       <r>   -7.0699    1.0000 </r>
       <r>   -7.0696    1.0000 </r>
       <r>   -7.0695    1.0000 </r>
       <r>   -7.0690    1.0000 </r>
       <r>   -7.0095    1.0000 </r>
       <r>   -7.0091    1.0000 </r>
       <r>   -7.0089    1.0000 </r>
       <r>   -7.0088    1.0000 </r>
       <r>   -6.9939    1.0000 </r>
       <r>   -6.9939    1.0000 </r>
       <r>   -6.9938    1.0000 </r>
       <r>   -6.9937    1.0000 </r>
       <r>   -6.9476    1.0000 </r>
       <r>   -6.9353    1.0000 </r>
       <r>   -6.9349    1.0000 </r>
       <r>   -6.9199    1.0000 </r>
       <r>   -6.9192    1.0000 </r>
       <r>   -6.9191    1.0000 </r>
       <r>   -6.9191    1.0000 </r>
       <r>   -6.9190    1.0000 </r>
       <r>   -6.9190    1.0000 </r>
       <r>   -6.9187    1.0000 </r>
       <r>   -6.9184    1.0000 </r>
       <r>   -6.8370    1.0000 </r>
       <r>   -6.8367    1.0000 </r>
       <r>   -6.8364    1.0000 </r>
       <r>   -6.8364    1.0000 </r>
       <r>   -6.8238    1.0000 </r>
       <r>   -6.8180    1.0000 </r>
       <r>   -6.8179    1.0000 </r>
       <r>   -6.7728    1.0000 </r>
       <r>   -6.7724    1.0000 </r>
       <r>   -6.7673    1.0000 </r>
       <r>   -6.7669    1.0000 </r>
       <r>   -6.7669    1.0000 </r>
       <r>   -6.7664    1.0000 </r>
       <r>   -6.7547    1.0000 </r>
       <r>   -6.7546    1.0000 </r>
       <r>   -6.7401    1.0000 </r>
       <r>   -6.7397    1.0000 </r>
       <r>   -6.6844    1.0000 </r>
       <r>   -0.3461    1.0000 </r>
       <r>    0.0936    1.0000 </r>
       <r>    0.0940    1.0000 </r>
       <r>    0.0941    1.0000 </r>
       <r>    0.0942    1.0000 </r>
       <r>    0.0943    1.0000 </r>
       <r>    0.0944    1.0000 </r>
       <r>    0.0945    1.0000 </r>
       <r>    0.0948    1.0000 </r>
       <r>    0.1075    1.0000 </r>
       <r>    0.1077    1.0000 </r>
       <r>    0.1080    1.0000 </r>
       <r>    0.1082    1.0000 </r>
       <r>    0.1521    1.0000 </r>
       <r>    0.1522    1.0000 </r>
       <r>    0.1522    1.0000 </r>
       <r>    0.1524    1.0000 </r>
       <r>    0.1580    1.0000 </r>
       <r>    0.1581    1.0000 </r>
       <r>    0.1596    1.0000 </r>
       <r>    0.1597    1.0000 </r>
       <r>    0.2007    1.0000 </r>
       <r>    0.2009    1.0000 </r>
       <r>    0.2010    1.0000 </r>
       <r>    0.2011    1.0000 </r>
       <r>    0.2366    1.0000 </r>
       <r>    0.2367    1.0000 </r>
       <r>    0.2565    1.0000 </r>
       <r>    0.2571    1.0000 </r>
       <r>    0.2821    1.0000 </r>
       <r>    0.3006    1.0000 </r>
       <r>    0.3009    1.0000 </r>
       <r>    0.3229    1.0000 </r>
       <r>    0.4471    1.0000 </r>
       <r>    0.4472    1.0000 </r>
       <r>    0.4507    1.0000 </r>
       <r>    0.4510    1.0000 </r>
       <r>    0.4572    1.0000 </r>
       <r>    0.4575    1.0000 </r>
       <r>    0.4653    1.0000 </r>
       <r>    0.4655    1.0000 </r>
       <r>    0.4658    1.0000 </r>
       <r>    0.4660    1.0000 </r>
       <r>    0.4698    1.0000 </r>
       <r>    0.4700    1.0000 </r>
       <r>    0.4702    1.0000 </r>
       <r>    0.4703    1.0000 </r>
       <r>    0.5112    1.0000 </r>
       <r>    0.5114    1.0000 </r>
       <r>    0.5259    1.0000 </r>
       <r>    0.5263    1.0000 </r>
       <r>    0.5263    1.0000 </r>
       <r>    0.5268    1.0000 </r>
       <r>    0.5972    1.0000 </r>
       <r>    0.6017    1.0000 </r>
       <r>    0.6547    1.0000 </r>
       <r>    0.6549    1.0000 </r>
       <r>    0.6552    1.0000 </r>
       <r>    0.6553    1.0000 </r>
       <r>    0.6615    1.0000 </r>
       <r>    0.6618    1.0000 </r>
       <r>    0.6877    1.0000 </r>
       <r>    0.6878    1.0000 </r>
       <r>    0.7014    1.0000 </r>
       <r>    0.7018    1.0000 </r>
       <r>    0.7020    1.0000 </r>
       <r>    0.7021    1.0000 </r>
       <r>    0.7207    1.0000 </r>
       <r>    0.7208    1.0000 </r>
       <r>    0.7409    1.0000 </r>
       <r>    0.7412    1.0000 </r>
       <r>    0.7484    1.0000 </r>
       <r>    0.8022    1.0000 </r>
       <r>    0.8140    1.0000 </r>
       <r>    0.8143    1.0000 </r>
       <r>    0.8144    1.0000 </r>
       <r>    0.8148    1.0000 </r>
       <r>    0.8302    1.0000 </r>
       <r>    0.8303    1.0000 </r>
       <r>    0.8305    1.0000 </r>
       <r>    0.8305    1.0000 </r>
       <r>    0.8513    1.0000 </r>
       <r>    0.8519    1.0000 </r>
       <r>    0.8520    1.0000 </r>
       <r>    0.8520    1.0000 </r>
       <r>    0.8521    1.0000 </r>
       <r>    0.8521    1.0000 </r>
       <r>    0.8522    1.0000 </r>
       <r>    0.8528    1.0000 </r>
       <r>    0.8949    1.0000 </r>
       <r>    0.8976    1.0000 </r>
       <r>    0.8978    1.0000 </r>
       <r>    0.8991    1.0000 </r>
       <r>    0.8993    1.0000 </r>
       <r>    0.8995    1.0000 </r>
       <r>    0.8997    1.0000 </r>
       <r>    0.9203    1.0000 </r>
       <r>    0.9458    1.0000 </r>
       <r>    0.9459    1.0000 </r>
       <r>    1.0706    1.0000 </r>
       <r>    1.0709    1.0000 </r>
       <r>    1.0710    1.0000 </r>
       <r>    1.0711    1.0000 </r>
       <r>    1.0843    1.0000 </r>
       <r>    1.0844    1.0000 </r>
       <r>    1.0847    1.0000 </r>
       <r>    1.0849    1.0000 </r>
       <r>    1.0850    1.0000 </r>
       <r>    1.0854    1.0000 </r>
       <r>    1.1007    1.0000 </r>
       <r>    1.1010    1.0000 </r>
       <r>    1.1456    1.0000 </r>
       <r>    1.1458    1.0000 </r>
       <r>    1.1459    1.0000 </r>
       <r>    1.1460    1.0000 </r>
       <r>    1.1616    1.0000 </r>
       <r>    1.1619    1.0000 </r>
       <r>    1.1619    1.0000 </r>
       <r>    1.1620    1.0000 </r>
       <r>    1.1753    1.0000 </r>
       <r>    1.1759    1.0000 </r>
       <r>    1.1995    1.0000 </r>
       <r>    1.2241    1.0000 </r>
       <r>    1.2244    1.0000 </r>
       <r>    1.2293    1.0000 </r>
       <r>    1.2297    1.0000 </r>
       <r>    1.2298    1.0000 </r>
       <r>    1.2299    1.0000 </r>
       <r>    1.2300    1.0000 </r>
       <r>    1.2301    1.0000 </r>
       <r>    1.2301    1.0000 </r>
       <r>    1.2303    1.0000 </r>
       <r>    1.2368    1.0000 </r>
       <r>    1.2371    1.0000 </r>
       <r>    1.3413    1.0000 </r>
       <r>    1.3414    1.0000 </r>
       <r>    1.3416    1.0000 </r>
       <r>    1.3417    1.0000 </r>
       <r>    1.3653    1.0000 </r>
       <r>    1.3662    1.0000 </r>
       <r>    1.3664    1.0000 </r>
       <r>    1.3672    1.0000 </r>
       <r>    1.3673    1.0000 </r>
       <r>    1.3733    1.0000 </r>
       <r>    1.3735    1.0000 </r>
       <r>    1.3735    1.0000 </r>
       <r>    1.3735    1.0000 </r>
[...]
       <r>    -1.7773     0.0000    96.0000 </r>
       <r>    -1.7056     0.0000    96.0000 </r>
       <r>    -1.6340     0.0000    96.0000 </r>
       <r>    -1.5623     0.0000    96.0000 </r>
       <r>    -1.4907     0.0000    96.0000 </r>
       <r>    -1.4190     0.0000    96.0000 </r>
       <r>    -1.3474     0.0000    96.0000 </r>
       <r>    -1.2757     0.0000    96.0000 </r>
       <r>    -1.2041     0.0000    96.0000 </r>
       <r>    -1.1324     0.0000    96.0000 </r>
       <r>    -1.0607     0.0000    96.0000 </r>
       <r>    -0.9891     0.0000    96.0000 </r>
       <r>    -0.9174     0.0000    96.0000 </r>
       <r>    -0.8458     0.0000    96.0000 </r>
       <r>    -0.7741     0.0000    96.0000 </r>
       <r>    -0.7025     0.0000    96.0000 </r>
       <r>    -0.6308     0.0000    96.0000 </r>
       <r>    -0.5592     0.0000    96.0000 </r>
       <r>    -0.4875     0.0001    96.0000 </r>
       <r>    -0.4159     0.0843    96.0061 </r>
       <r>    -0.3442     1.7339    96.1303 </r>
       <r>    -0.2726     1.8854    96.2654 </r>
       <r>    -0.2009     8.1460    96.8491 </r>
       <r>    -0.1293    15.3952    97.9522 </r>
       <r>    -0.0576    23.9642    99.6693 </r>
       <r>     0.0140    50.8531   103.3130 </r>
       <r>     0.0857   101.4053   110.5789 </r>
       <r>     0.1573   188.3389   124.0738 </r>
       <r>     0.2290   204.9098   138.7561 </r>
       <r>     0.3006   274.3679   158.4152 </r>
       <r>     0.3723   194.4276   172.3464 </r>
       <r>     0.4440   125.2561   181.3213 </r>
       <r>     0.5156   140.7233   191.4044 </r>
       <r>     0.5873   124.2843   200.3097 </r>
       <r>     0.6589   165.1883   212.1458 </r>
       <r>     0.7306   244.9817   229.6993 </r>
       <r>     0.8022   229.2073   246.1226 </r>
       <r>     0.8739   290.6698   266.9497 </r>
       <r>     0.9455   286.1537   287.4533 </r>
       <r>     1.0172   147.4494   298.0184 </r>
       <r>     1.0888   183.1766   311.1434 </r>
       <r>     1.1605   226.6316   327.3821 </r>
       <r>     1.2321   228.9526   343.7871 </r>
       <r>     1.3038   297.8169   365.1264 </r>
       <r>     1.3754   305.8817   387.0435 </r>
       <r>     1.4471   391.1547   415.0706 </r>
       <r>     1.5187   355.5756   440.5485 </r>
       <r>     1.5904   372.8389   467.2632 </r>
       <r>     1.6620   365.5146   493.4532 </r>
       <r>     1.7337   391.2010   521.4837 </r>
       <r>     1.8053   372.7418   548.1915 </r>
       <r>     1.8770   357.9692   573.8408 </r>
       <r>     1.9486   388.5977   601.6847 </r>
       <r>     2.0203   414.6643   631.3964 </r>
       <r>     2.0920   378.8094   658.5389 </r>
       <r>     2.1636   360.9944   684.4050 </r>
       <r>     2.2353   374.8970   711.2673 </r>
       <r>     2.3069   397.3695   739.7397 </r>
       <r>     2.3786   338.6360   764.0038 </r>
       <r>     2.4502   296.4384   785.2443 </r>
       <r>     2.5219   338.8158   809.5212 </r>
       <r>     2.5935   354.5363   834.9245 </r>
       <r>     2.6652   408.5702   864.1995 </r>
       <r>     2.7368   374.7001   891.0477 </r>
       <r>     2.8085   379.0578   918.2080 </r>
       <r>     2.8801   431.4962   949.1258 </r>
       <r>     2.9518   498.4196   984.8387 </r>
       <r>     3.0234   497.5419  1020.4887 </r>
       <r>     3.0951   370.6616  1047.0475 </r>
       <r>     3.1667   234.4564  1063.8468 </r>
       <r>     3.2384   205.4421  1078.5672 </r>
       <r>     3.3100   170.9900  1090.8190 </r>
       <r>     3.3817   138.6304  1100.7522 </r>
       <r>     3.4533   119.1807  1109.2918 </r>
       <r>     3.5250   157.1612  1120.5528 </r>
       <r>     3.5967   163.5928  1132.2746 </r>
       <r>     3.6683   101.3259  1139.5348 </r>
       <r>     3.7400    96.7491  1146.4671 </r>
       <r>     3.8116    65.3313  1151.1482 </r>
       <r>     3.8833    72.1102  1156.3151 </r>
       <r>     3.9549    73.5149  1161.5826 </r>
       <r>     4.0266    65.0712  1166.2451 </r>
       <r>     4.0982    92.3695  1172.8636 </r>
       <r>     4.1699   103.0824  1180.2497 </r>
       <r>     4.2415   114.6319  1188.4633 </r>
       <r>     4.3132    75.2374  1193.8543 </r>
       <r>     4.3848    72.8926  1199.0772 </r>
       <r>     4.4565    65.3226  1203.7577 </r>
       <r>     4.5281    92.0232  1210.3514 </r>
       <r>     4.5998    93.3536  1217.0404 </r>
       <r>     4.6714   102.3434  1224.3735 </r>
       <r>     4.7431   139.2990  1234.3546 </r>
       <r>     4.8147   138.3405  1244.2671 </r>
       <r>     4.8864    72.9449  1249.4937 </r>
       <r>     4.9580    53.4705  1253.3250 </r>
       <r>     5.0297    55.0340  1257.2683 </r>
       <r>     5.1014    86.7389  1263.4834 </r>
       <r>     5.1730   143.9430  1273.7972 </r>
       <r>     5.2447   109.3576  1281.6329 </r>
       <r>     5.3163    63.2400  1286.1642 </r>
       <r>     5.3880    59.2841  1290.4121 </r>
       <r>     5.4596    69.3296  1295.3797 </r>
       <r>     5.5313    72.3797  1300.5659 </r>
       <r>     5.6029    76.5329  1306.0496 </r>
       <r>     5.6746   110.0242  1313.9331 </r>
       <r>     5.7462   132.4474  1323.4233 </r>
       <r>     5.8179    73.0161  1328.6551 </r>
       <r>     5.8895    64.4337  1333.2719 </r>
       <r>     5.9612    58.6304  1337.4729 </r>
       <r>     6.0328    30.5995  1339.6654 </r>
       <r>     6.1045    18.9557  1341.0236 </r>
       <r>     6.1761    21.5344  1342.5666 </r>
       <r>     6.2478    16.9155  1343.7787 </r>
       <r>     6.3194     9.0788  1344.4292 </r>
       <r>     6.3911     0.9833  1344.4996 </r>
       <r>     6.4627     0.1141  1344.5078 </r>
       <r>     6.5344     1.8630  1344.6413 </r>
       <r>     6.6061     1.8020  1344.7704 </r>
       <r>     6.6777     5.2739  1345.1483 </r>
       <r>     6.7494    22.7738  1346.7801 </r>
       <r>     6.8210    26.0943  1348.6498 </r>
       <r>     6.8927    11.3083  1349.4601 </r>
       <r>     6.9643     6.3037  1349.9117 </r>
       <r>     7.0360     8.9720  1350.5546 </r>
       <r>     7.1076     4.6767  1350.8897 </r>
       <r>     7.1793    21.3506  1352.4195 </r>
       <r>     7.2509    23.9318  1354.1343 </r>
       <r>     7.3226    28.1045  1356.1480 </r>
       <r>     7.3942    31.2591  1358.3878 </r>
       <r>     7.4659    30.3721  1360.5641 </r>
       <r>     7.5375    60.1870  1364.8766 </r>
       <r>     7.6092    71.9301  1370.0306 </r>
       <r>     7.6808    26.8044  1371.9512 </r>
       <r>     7.7525    54.3318  1375.8442 </r>
       <r>     7.8241    69.6090  1380.8318 </r>
       <r>     7.8958    73.2795  1386.0824 </r>
       <r>     7.9674    75.3395  1391.4807 </r>
       <r>     8.0391    66.4783  1396.2440 </r>
       <r>     8.1107    34.5589  1398.7202 </r>
       <r>     8.1824    18.7852  1400.0662 </r>
       <r>     8.2541     8.4297  1400.6703 </r>
       <r>     8.3257    10.1426  1401.3970 </r>
       <r>     8.3974    50.5680  1405.0203 </r>
       <r>     8.4690    34.5160  1407.4935 </r>
       <r>     8.5407    31.7688  1409.7698 </r>
       <r>     8.6123    94.3722  1416.5317 </r>
       <r>     8.6840   105.0274  1424.0572 </r>
       <r>     8.7556    58.7841  1428.2692 </r>
       <r>     8.8273    51.5519  1431.9630 </r>
       <r>     8.8989    33.4187  1434.3576 </r>
       <r>     8.9706    45.8186  1437.6406 </r>
       <r>     9.0422    30.4764  1439.8243 </r>
       <r>     9.1139    22.2818  1441.4208 </r>
       <r>     9.1855    10.3522  1442.1626 </r>
       <r>     9.2572    16.4805  1443.3434 </r>
       <r>     9.3288    53.3541  1447.1664 </r>
       <r>     9.4005    49.7265  1450.7294 </r>
       <r>     9.4721    54.3150  1454.6212 </r>
       <r>     9.5438    38.2432  1457.3614 </r>
       <r>     9.6154    50.7129  1460.9951 </r>
       <r>     9.6871    50.0739  1464.5830 </r>
       <r>     9.7588    47.8621  1468.0125 </r>
       <r>     9.8304    52.1866  1471.7517 </r>
       <r>     9.9021    76.3915  1477.2254 </r>
       <r>     9.9737    55.7581  1481.2206 </r>
       <r>    10.0454   107.8216  1488.9462 </r>
       <r>    10.1170   119.2771  1497.4927 </r>
       <r>    10.1887    43.5170  1500.6108 </r>
       <r>    10.2603    28.3808  1502.6444 </r>
       <r>    10.3320    48.8178  1506.1423 </r>
       <r>    10.4036    55.8757  1510.1459 </r>
       <r>    10.4753    90.2833  1516.6149 </r>
       <r>    10.5469   109.5378  1524.4635 </r>
       <r>    10.6186   112.1212  1532.4973 </r>
       <r>    10.6902    94.5070  1539.2689 </r>
       <r>    10.7619    78.1214  1544.8665 </r>
       <r>    10.8335   107.2896  1552.5541 </r>
       <r>    10.9052    90.2685  1559.0220 </r>
       <r>    10.9768    65.1286  1563.6886 </r>
       <r>    11.0485    35.1183  1566.2049 </r>
       <r>    11.1201    55.0490  1570.1493 </r>
       <r>    11.1918    52.0722  1573.8804 </r>
       <r>    11.2635    44.5602  1577.0732 </r>
       <r>    11.3351    83.0480  1583.0238 </r>
       <r>    11.4068    53.7209  1586.8731 </r>
       <r>    11.4784    54.6684  1590.7902 </r>
       <r>    11.5501    88.7170  1597.1470 </r>
       <r>    11.6217    68.3319  1602.0431 </r>
       <r>    11.6934    46.5279  1605.3769 </r>
       <r>    11.7650    12.3270  1606.2602 </r>
       <r>    11.8367    14.8176  1607.3219 </r>
       <r>    11.9083    36.0709  1609.9065 </r>
       <r>    11.9800    21.0696  1611.4162 </r>
       <r>    12.0516     3.0487  1611.6346 </r>
       <r>    12.1233     4.5344  1611.9595 </r>
       <r>    12.1949     0.5629  1611.9998 </r>
       <r>    12.2666     0.0023  1612.0000 </r>
       <r>    12.3382     0.0000  1612.0000 </r>
       <r>    12.4099     0.0000  1612.0000 </r>
       <r>    12.4815     0.0000  1612.0000 </r>
       <r>    12.5532     0.0000  1612.0000 </r>
       <r>    12.6248     0.0000  1612.0000 </r>
       <r>    12.6965     0.0000  1612.0000 </r>
       <r>    12.7681     0.0000  1612.0000 </r>
       <r>    12.8398     0.0000  1612.0000 </r>
       <r>    12.9115     0.0000  1612.0000 </r>
       <r>    12.9831     0.0000  1612.0000 </r>
       <r>    13.0548     0.0000  1612.0000 </r>
      </set>
     </set>
    </array>
   </total>
  </dos>
 </calculation>
 <structure name="finalpos" >
  <crystal>
   <varray name="basis" >
    <v>      14.01039598       0.00139138       0.00000000 </v>
    <v>      -0.00150196      13.76691092       0.00000000 </v>
    <v>       0.00000000       0.00000000      14.55019386 </v>
   </varray>
   <i name="volume">   2806.43958022 </i>
   <varray name="rec_basis" >
    <v>       0.07137557       0.00000779       0.00000000 </v>
    <v>      -0.00000721       0.07263794       0.00000000 </v>
    <v>       0.00000000       0.00000000       0.06872761 </v>
   </varray>
  </crystal>
  <varray name="positions" >
   <v>       0.42987898       0.17167077       0.33247735 </v>
   <v>       0.92987898       0.17167077       0.33247735 </v>
   <v>       0.42987898       0.67167077       0.33247735 </v>
   <v>       0.92987898       0.67167077       0.33247735 </v>
   <v>       0.42987898       0.17167077       0.66581068 </v>
   <v>       0.92987898       0.17167077       0.66581068 </v>
   <v>       0.42987898       0.67167077       0.66581068 </v>
   <v>       0.92987898       0.67167077       0.66581068 </v>
   <v>       0.42987898       0.17167077       0.99914401 </v>
   <v>       0.92987898       0.17167077       0.99914401 </v>
   <v>       0.42987898       0.67167077       0.99914401 </v>
   <v>       0.92987898       0.67167077       0.99914401 </v>
   <v>       0.07012102       0.32832923       0.33247735 </v>
   <v>       0.57012102       0.32832923       0.33247735 </v>
   <v>       0.07012102       0.82832923       0.33247735 </v>
   <v>       0.57012102       0.82832923       0.33247735 </v>
   <v>       0.07012102       0.32832923       0.66581068 </v>
   <v>       0.57012102       0.32832923       0.66581068 </v>
   <v>       0.07012102       0.82832923       0.66581068 </v>
   <v>       0.57012102       0.82832923       0.66581068 </v>
   <v>       0.07012102       0.32832923       0.99914401 </v>
   <v>       0.57012102       0.32832923       0.99914401 </v>
   <v>       0.07012102       0.82832923       0.99914401 </v>
   <v>       0.57012102       0.82832923       0.99914401 </v>
   <v>       0.32012053       0.42167367       0.05641075 </v>
   <v>       0.82012053       0.42167367       0.05641075 </v>
   <v>       0.32012053       0.92167367       0.05641075 </v>
   <v>       0.82012053       0.92167367       0.05641075 </v>
   <v>       0.32012053       0.42167367       0.38974408 </v>
   <v>       0.82012053       0.42167367       0.38974408 </v>
   <v>       0.32012053       0.92167367       0.38974408 </v>
   <v>       0.82012053       0.92167367       0.38974408 </v>
   <v>       0.32012053       0.42167367       0.72307741 </v>
   <v>       0.82012053       0.42167367       0.72307741 </v>
   <v>       0.32012053       0.92167367       0.72307741 </v>
   <v>       0.82012053       0.92167367       0.72307741 </v>
   <v>       0.17987947       0.07832633       0.05641075 </v>
   <v>       0.67987947       0.07832633       0.05641075 </v>
   <v>       0.17987947       0.57832633       0.05641075 </v>
   <v>       0.67987947       0.57832633       0.05641075 </v>
   <v>       0.17987947       0.07832633       0.38974408 </v>
   <v>       0.67987947       0.07832633       0.38974408 </v>
   <v>       0.17987947       0.57832633       0.38974408 </v>
   <v>       0.67987947       0.57832633       0.38974408 </v>
   <v>       0.17987947       0.07832633       0.72307741 </v>
   <v>       0.67987947       0.07832633       0.72307741 </v>
   <v>       0.17987947       0.57832633       0.72307741 </v>
   <v>       0.67987947       0.57832633       0.72307741 </v>
   <v>       0.17987776       0.32832369       0.16580856 </v>
   <v>       0.67987776       0.32832369       0.16580856 </v>
   <v>       0.17987776       0.82832369       0.16580856 </v>
   <v>       0.67987776       0.82832369       0.16580856 </v>
   <v>       0.17987776       0.32832369       0.49914189 </v>
   <v>       0.67987776       0.32832369       0.49914189 </v>
   <v>       0.17987776       0.82832369       0.49914189 </v>
   <v>       0.67987776       0.82832369       0.49914189 </v>
   <v>       0.17987776       0.32832369       0.83247522 </v>
   <v>       0.67987776       0.32832369       0.83247522 </v>
   <v>       0.17987776       0.82832369       0.83247522 </v>
   <v>       0.67987776       0.82832369       0.83247522 </v>
   <v>       0.32012224       0.17167631       0.16580856 </v>
   <v>       0.82012224       0.17167631       0.16580856 </v>
   <v>       0.32012224       0.67167631       0.16580856 </v>
   <v>       0.82012224       0.67167631       0.16580856 </v>
   <v>       0.32012224       0.17167631       0.49914189 </v>
   <v>       0.82012224       0.17167631       0.49914189 </v>
   <v>       0.32012224       0.67167631       0.49914189 </v>
   <v>       0.82012224       0.67167631       0.49914189 </v>
   <v>       0.32012224       0.17167631       0.83247522 </v>
   <v>       0.82012224       0.17167631       0.83247522 </v>
   <v>       0.32012224       0.67167631       0.83247522 </v>
   <v>       0.82012224       0.67167631       0.83247522 </v>
   <v>       0.42987656       0.42167494       0.22376727 </v>
   <v>       0.92987656       0.42167494       0.22308000 </v>
   <v>       0.42987656       0.92167494       0.22308000 </v>
   <v>       0.92987656       0.92167494       0.22308000 </v>
   <v>       0.42987656       0.42167494       0.55641333 </v>
   <v>       0.92987656       0.42167494       0.55641333 </v>
   <v>       0.42987656       0.92167494       0.55641333 </v>
   <v>       0.92987656       0.92167494       0.55641333 </v>
   <v>       0.42987656       0.42167494       0.88974666 </v>
   <v>       0.92987656       0.42167494       0.88974666 </v>
   <v>       0.42987656       0.92167494       0.88974666 </v>
   <v>       0.92987656       0.92167494       0.88974666 </v>
   <v>       0.07012344       0.07832506       0.22308000 </v>
   <v>       0.57012344       0.07832506       0.22308000 </v>
   <v>       0.07012344       0.57832506       0.22308000 </v>
   <v>       0.57012344       0.57832506       0.22308000 </v>
   <v>       0.07012344       0.07832506       0.55641333 </v>
   <v>       0.57012344       0.07832506       0.55641333 </v>
   <v>       0.07012344       0.57832506       0.55641333 </v>
   <v>       0.57012344       0.57832506       0.55641333 </v>
   <v>       0.07012344       0.07832506       0.88974666 </v>
   <v>       0.57012344       0.07832506       0.88974666 </v>
   <v>       0.07012344       0.57832506       0.88974666 </v>
   <v>       0.57012344       0.57832506       0.88974666 </v>
   <v>       0.00000000       0.00000000       0.05479365 </v>
   <v>       0.50000000       0.00000000       0.05479365 </v>
   <v>       0.00000000       0.50000000       0.05479365 </v>
   <v>       0.50000000       0.50000000       0.05479365 </v>
   <v>       0.00000000       0.00000000       0.38812698 </v>
   <v>       0.50000000       0.00000000       0.38812698 </v>
   <v>       0.00000000       0.50000000       0.38812698 </v>
   <v>       0.50000000       0.50000000       0.38812698 </v>
   <v>       0.00000000       0.00000000       0.72146032 </v>
   <v>       0.50000000       0.00000000       0.72146032 </v>
   <v>       0.00000000       0.50000000       0.72146032 </v>
   <v>       0.50000000       0.50000000       0.72146032 </v>
   <v>       0.25000000       0.00000000       0.22145206 </v>
   <v>       0.75000000       0.00000000       0.22145206 </v>
   <v>       0.25000000       0.50000000       0.22145206 </v>
   <v>       0.75000000       0.50000000       0.22145206 </v>
   <v>       0.25000000       0.00000000       0.55478539 </v>
   <v>       0.75000000       0.00000000       0.55478539 </v>
   <v>       0.25000000       0.50000000       0.55478539 </v>
   <v>       0.75000000       0.50000000       0.55478539 </v>
   <v>       0.25000000       0.00000000       0.88811873 </v>
   <v>       0.75000000       0.00000000       0.88811873 </v>
   <v>       0.25000000       0.50000000       0.88811873 </v>
   <v>       0.75000000       0.50000000       0.88811873 </v>
   <v>       0.00000000       0.25000000       0.16743769 </v>
   <v>       0.50000000       0.25000000       0.16743769 </v>
   <v>       0.00000000       0.75000000       0.16743769 </v>
   <v>       0.50000000       0.75000000       0.16743769 </v>
   <v>       0.00000000       0.25000000       0.50077102 </v>
   <v>       0.50000000       0.25000000       0.50077102 </v>
   <v>       0.00000000       0.75000000       0.50077102 </v>
   <v>       0.50000000       0.75000000       0.50077102 </v>
   <v>       0.00000000       0.25000000       0.83410435 </v>
   <v>       0.50000000       0.25000000       0.83410435 </v>
   <v>       0.00000000       0.75000000       0.83410435 </v>
   <v>       0.50000000       0.75000000       0.83410435 </v>
   <v>       0.25000000       0.25000000       0.00076332 </v>
   <v>       0.75000000       0.25000000       0.00076332 </v>
   <v>       0.25000000       0.75000000       0.00076332 </v>
   <v>       0.75000000       0.75000000       0.00076332 </v>
   <v>       0.25000000       0.25000000       0.33409665 </v>
   <v>       0.75000000       0.25000000       0.33409665 </v>
   <v>       0.25000000       0.75000000       0.33409665 </v>
   <v>       0.75000000       0.75000000       0.33409665 </v>
   <v>       0.25000000       0.25000000       0.66742999 </v>
   <v>       0.75000000       0.25000000       0.66742999 </v>
   <v>       0.25000000       0.75000000       0.66742999 </v>
   <v>       0.75000000       0.75000000       0.66742999 </v>
  </varray>
 </structure>
</modeling>
