<?xml version="1.0" encoding="ISO-8859-1"?>
<modeling>
 <generator>
  <i name="program" type="string">vasp </i>
  <i name="version" type="string">5.4.4.18Apr17-6-g9f103f2a35  </i>
  <i name="subversion" type="string">(build Jul 30 2020 14:31:59) complex            parallel </i>
  <i name="platform" type="string">LinuxIFC </i>
  <i name="date" type="string">2021 02 04 </i>
  <i name="time" type="string">08:21:28 </i>
 </generator>
 <incar>
  <i type="string" name="PREC">accurate</i>
  <i type="string" name="ALGO"> normal</i>
  <i type="logical" name="ADDGRID"> T  </i>
  <i type="int" name="ISPIN">     1</i>
  <i type="int" name="NELM">   200</i>
  <i type="int" name="NELMIN">     8</i>
  <i name="EDIFF">      0.00000001</i>
  <i type="int" name="ISIF">     3</i>
  <i type="int" name="ISYM">     0</i>
  <i name="ENCUT">    650.00000000</i>
  <i type="logical" name="LREAL"> F  </i>
  <i type="int" name="ISMEAR">     0</i>
  <i name="SIGMA">      0.05000000</i>
  <i type="logical" name="LWAVE"> F  </i>
  <i type="logical" name="LASPH"> T  </i>
  <v type="int" name="KPOINT_BSE">    -1     0     0     0</v>
  <i type="int" name="NELM">   200</i>
  <i type="string" name="GGA"> ps</i>
  <i type="logical" name="LASPH"> T  </i>
 </incar>
 <structure name="primitive_cell" >
  <crystal>
   <varray name="basis" >
    <v>      14.01039598       0.00139138       0.00000000 </v>
    <v>      -0.00150196      13.76691092       0.00000000 </v>
    <v>       0.00000000       0.00000000      14.55019386 </v>
   </varray>
   <i name="volume">   2806.43958022 </i>
   <varray name="rec_basis" >
    <v>       0.07137557       0.00000779       0.00000000 </v>
    <v>      -0.00000721       0.07263794       0.00000000 </v>
    <v>       0.00000000       0.00000000       0.06872761 </v>
   </varray>
  </crystal>
  <varray name="positions" >
   <v>       0.42987898       0.17167077       0.33247735 </v>
   <v>      -0.50000000       0.00000000       0.38812698 </v>
   <v>       0.25000000       0.25000000       0.33409665 </v>
   <v>      -0.50000000       0.25000000       0.16743769 </v>
   <v>      -0.42987656       0.07832506       0.22308000 </v>
   <v>      -0.50000000       0.25000000      -0.49922898 </v>
   <v>       0.32012224       0.17167631       0.49914189 </v>
   <v>       0.32012224       0.17167631       0.16580856 </v>
   <v>      -0.42987898       0.32832923       0.33247735 </v>
   <v>       0.42987656       0.42094857       0.22308000 </v>
   <v>       0.42987656      -0.07832506       0.22308000 </v>
   <v>       0.25000000       0.00000000       0.22145206 </v>
   <v>       0.17987948       0.07832633       0.38974408 </v>
   <v>      -0.32012052       0.07832633       0.38974408 </v>
   <v>       0.32012052      -0.07832633       0.38974408 </v>
   <v>       0.32012052       0.42167367       0.38974408 </v>
   <v>      -0.42987656       0.07832506      -0.44358667 </v>
   <v>      -0.25000000       0.25000000       0.33409665 </v>
   <v>      -0.50000000      -0.50000000       0.38812698 </v>
   <v>       0.25000000       0.00000000      -0.44521461 </v>
   <v>       0.42987656      -0.07832506      -0.44358667 </v>
   <v>       0.42987656       0.42167494      -0.44358667 </v>
   <v>      -0.32012224       0.32832369       0.49914189 </v>
   <v>      -0.32012224       0.32832369       0.16580856 </v>
   <v>       0.17987776       0.32832369       0.49914189 </v>
   <v>       0.17987776       0.32832369       0.16580856 </v>
   <v>      -0.50000000       0.00000000       0.05479365 </v>
   <v>       0.42987898       0.17167077      -0.33418932 </v>
   <v>       0.42987898       0.17167077      -0.00085599 </v>
   <v>      -0.42987898      -0.17167077       0.33247735 </v>
   <v>      -0.25000000       0.00000000       0.22145206 </v>
   <v>       0.25000000      -0.50000000       0.22145206 </v>
   <v>       0.07012344       0.07832506       0.22308000 </v>
   <v>       0.17987948       0.07832633       0.05641075 </v>
   <v>      -0.32012052       0.07832633       0.05641075 </v>
   <v>       0.07012102       0.32832923       0.33247735 </v>
   <v>       0.32012052      -0.07832633       0.05641075 </v>
   <v>       0.32012052       0.42167367       0.05641075 </v>
   <v>       0.25000000       0.25000000       0.00076332 </v>
   <v>       0.25000000       0.25000000      -0.33257001 </v>
   <v>      -0.42987898       0.32832923      -0.33418932 </v>
   <v>      -0.42987898       0.32832923      -0.00085599 </v>
   <v>      -0.17987776       0.17167631       0.49914189 </v>
   <v>      -0.17987776       0.17167631       0.16580856 </v>
   <v>      -0.25000000       0.00000000      -0.44521461 </v>
   <v>       0.25000000      -0.50000000      -0.44521461 </v>
   <v>       0.07012344       0.07832506      -0.44358667 </v>
   <v>      -0.50000000      -0.50000000       0.05479365 </v>
   <v>      -0.42987656      -0.42167494       0.22308000 </v>
   <v>      -0.50000000       0.00000000      -0.27853968 </v>
   <v>       0.25000000      -0.25000000       0.33409665 </v>
   <v>      -0.50000000      -0.25000000       0.16743769 </v>
   <v>       0.17987776      -0.17167631       0.49914189 </v>
   <v>       0.17987776      -0.17167631       0.16580856 </v>
   <v>      -0.32012224      -0.17167631       0.49914189 </v>
   <v>      -0.32012224      -0.17167631       0.16580856 </v>
   <v>      -0.50000000      -0.25000000      -0.49922898 </v>
   <v>      -0.17987948       0.42167367       0.38974408 </v>
   <v>      -0.17987948      -0.07832633       0.38974408 </v>
   <v>       0.00000000       0.00000000       0.38812698 </v>
   <v>      -0.25000000      -0.50000000       0.22145206 </v>
   <v>       0.00000000       0.25000000       0.16743769 </v>
   <v>       0.00000000       0.25000000      -0.49922898 </v>
   <v>      -0.32012052      -0.42167367       0.38974408 </v>
   <v>       0.17987948      -0.42167367       0.38974408 </v>
   <v>      -0.25000000       0.25000000       0.00076332 </v>
   <v>      -0.25000000       0.25000000      -0.33257001 </v>
   <v>      -0.42987656      -0.42167494      -0.44358667 </v>
   <v>       0.17987948       0.07832633      -0.27692259 </v>
   <v>      -0.32012052       0.07832633      -0.27692259 </v>
   <v>       0.32012052      -0.07832633      -0.27692259 </v>
   <v>       0.32012052       0.42167367      -0.27692259 </v>
   <v>      -0.42987656       0.07832506      -0.11025334 </v>
   <v>       0.42987898      -0.32832923       0.33247735 </v>
   <v>       0.07012102      -0.17167077       0.33247735 </v>
   <v>      -0.07012102       0.17167077       0.33247735 </v>
   <v>      -0.42987898      -0.17167077      -0.33418932 </v>
   <v>      -0.42987898      -0.17167077      -0.00085599 </v>
   <v>      -0.25000000      -0.50000000      -0.44521461 </v>
   <v>       0.42987656      -0.07832506      -0.11025334 </v>
   <v>       0.42987656       0.42167494      -0.11025334 </v>
   <v>      -0.50000000      -0.50000000      -0.27853968 </v>
   <v>       0.07012102       0.32832923      -0.33418932 </v>
   <v>       0.07012102       0.32832923      -0.00085599 </v>
   <v>       0.25000000       0.00000000      -0.11188127 </v>
   <v>      -0.25000000      -0.25000000       0.33409665 </v>
   <v>      -0.50000000       0.25000000      -0.16589565 </v>
   <v>       0.32012224       0.17167631      -0.16752478 </v>
   <v>       0.32012224      -0.32832369       0.49914189 </v>
   <v>       0.32012224      -0.32832369       0.16580856 </v>
   <v>       0.00000000      -0.50000000       0.38812698 </v>
   <v>      -0.17987948       0.42167367       0.05641075 </v>
   <v>      -0.17987948      -0.07832633       0.05641075 </v>
   <v>       0.00000000       0.00000000       0.05479365 </v>
   <v>       0.07012344      -0.42167494       0.22308000 </v>
   <v>      -0.32012052      -0.42167367       0.05641075 </v>
   <v>       0.17987948      -0.42167367       0.05641075 </v>
   <v>       0.25000000      -0.25000000       0.00076332 </v>
   <v>      -0.07012344       0.42167494       0.22308000 </v>
   <v>      -0.07012344      -0.07832506       0.22308000 </v>
   <v>       0.25000000      -0.25000000      -0.33257001 </v>
   <v>       0.07012344      -0.42167494      -0.44358667 </v>
   <v>      -0.25000000       0.00000000      -0.11188127 </v>
   <v>       0.07012344       0.07832506      -0.11025334 </v>
   <v>       0.25000000      -0.50000000      -0.11188127 </v>
   <v>      -0.32012224       0.32832369      -0.16752478 </v>
   <v>       0.17987776       0.32832369      -0.16752478 </v>
   <v>       0.42987898      -0.32832923      -0.33418932 </v>
   <v>       0.42987898      -0.32832923      -0.00085599 </v>
   <v>       0.07012102      -0.17167077      -0.33418932 </v>
   <v>       0.07012102      -0.17167077      -0.00085599 </v>
   <v>      -0.07012344       0.42167494      -0.44358667 </v>
   <v>      -0.07012344      -0.07832506      -0.44358667 </v>
   <v>      -0.07012102       0.17167077      -0.33418932 </v>
   <v>      -0.07012102       0.17167077      -0.00085599 </v>
   <v>       0.00000000      -0.50000000       0.05479365 </v>
   <v>       0.00000000       0.00000000      -0.27853968 </v>
   <v>      -0.17987948       0.42167367      -0.27692259 </v>
   <v>      -0.17987948      -0.07832633      -0.27692259 </v>
   <v>       0.00000000      -0.25000000       0.16743769 </v>
   <v>      -0.32012052      -0.42167367      -0.27692259 </v>
   <v>       0.17987948      -0.42167367      -0.27692259 </v>
   <v>       0.00000000      -0.25000000      -0.49922898 </v>
   <v>      -0.42987656      -0.42167494      -0.11025334 </v>
   <v>      -0.25000000      -0.25000000       0.00076332 </v>
   <v>      -0.25000000      -0.25000000      -0.33257001 </v>
   <v>      -0.25000000      -0.50000000      -0.11188127 </v>
   <v>      -0.17987776       0.17167631      -0.16752478 </v>
   <v>      -0.17987776      -0.32832369       0.49914189 </v>
   <v>      -0.17987776      -0.32832369       0.16580856 </v>
   <v>      -0.50000000      -0.25000000      -0.16589565 </v>
   <v>       0.17987776      -0.17167631      -0.16752478 </v>
   <v>      -0.32012224      -0.17167631      -0.16752478 </v>
   <v>       0.00000000      -0.50000000      -0.27853968 </v>
   <v>       0.00000000       0.25000000      -0.16589565 </v>
   <v>      -0.07012102      -0.32832923       0.33247735 </v>
   <v>       0.07012344      -0.42167494      -0.11025334 </v>
   <v>      -0.07012344       0.42167494      -0.11025334 </v>
   <v>      -0.07012344      -0.07832506      -0.11025334 </v>
   <v>       0.32012224      -0.32832369      -0.16752478 </v>
   <v>      -0.07012102      -0.32832923      -0.33418932 </v>
   <v>      -0.07012102      -0.32832923      -0.00085599 </v>
   <v>       0.00000000      -0.25000000      -0.16589565 </v>
   <v>      -0.17987776      -0.32832369      -0.16752478 </v>
  </varray>
 </structure>
 <varray name="primitive_index" >
  <v type="int" >        1 </v>
  <v type="int" >      102 </v>
  <v type="int" >      137 </v>
  <v type="int" >      122 </v>
  <v type="int" >       86 </v>
  <v type="int" >      126 </v>
  <v type="int" >       65 </v>
  <v type="int" >       61 </v>
  <v type="int" >       14 </v>
  <v type="int" >       73 </v>
  <v type="int" >       75 </v>
  <v type="int" >      109 </v>
  <v type="int" >       41 </v>
  <v type="int" >       42 </v>
  <v type="int" >       31 </v>
  <v type="int" >       29 </v>
  <v type="int" >       90 </v>
  <v type="int" >      138 </v>
  <v type="int" >      104 </v>
  <v type="int" >      113 </v>
  <v type="int" >       79 </v>
  <v type="int" >       77 </v>
  <v type="int" >       54 </v>
  <v type="int" >       50 </v>
  <v type="int" >       53 </v>
  <v type="int" >       49 </v>
  <v type="int" >       98 </v>
  <v type="int" >        5 </v>
  <v type="int" >        9 </v>
  <v type="int" >       16 </v>
  <v type="int" >      110 </v>
  <v type="int" >      111 </v>
  <v type="int" >       85 </v>
  <v type="int" >       37 </v>
  <v type="int" >       38 </v>
  <v type="int" >       13 </v>
  <v type="int" >       27 </v>
  <v type="int" >       25 </v>
  <v type="int" >      133 </v>
  <v type="int" >      141 </v>
  <v type="int" >       18 </v>
  <v type="int" >       22 </v>
  <v type="int" >       66 </v>
  <v type="int" >       62 </v>
  <v type="int" >      114 </v>
  <v type="int" >      115 </v>
  <v type="int" >       89 </v>
  <v type="int" >      100 </v>
  <v type="int" >       88 </v>
  <v type="int" >      106 </v>
  <v type="int" >      139 </v>
  <v type="int" >      124 </v>
  <v type="int" >       55 </v>
  <v type="int" >       51 </v>
  <v type="int" >       56 </v>
  <v type="int" >       52 </v>
  <v type="int" >      128 </v>
  <v type="int" >       30 </v>
  <v type="int" >       32 </v>
  <v type="int" >      101 </v>
  <v type="int" >      112 </v>
  <v type="int" >      121 </v>
  <v type="int" >      125 </v>
  <v type="int" >       44 </v>
  <v type="int" >       43 </v>
  <v type="int" >      134 </v>
  <v type="int" >      142 </v>
  <v type="int" >       92 </v>
  <v type="int" >       45 </v>
  <v type="int" >       46 </v>
  <v type="int" >       35 </v>
  <v type="int" >       33 </v>
  <v type="int" >       94 </v>
  <v type="int" >        3 </v>
  <v type="int" >       15 </v>
  <v type="int" >        2 </v>
  <v type="int" >       20 </v>
  <v type="int" >       24 </v>
  <v type="int" >      116 </v>
  <v type="int" >       83 </v>
  <v type="int" >       81 </v>
  <v type="int" >      108 </v>
  <v type="int" >       17 </v>
  <v type="int" >       21 </v>
  <v type="int" >      117 </v>
  <v type="int" >      140 </v>
  <v type="int" >      130 </v>
  <v type="int" >       69 </v>
  <v type="int" >       67 </v>
  <v type="int" >       63 </v>
  <v type="int" >      103 </v>
  <v type="int" >       26 </v>
  <v type="int" >       28 </v>
  <v type="int" >       97 </v>
  <v type="int" >       87 </v>
  <v type="int" >       40 </v>
  <v type="int" >       39 </v>
  <v type="int" >      135 </v>
  <v type="int" >       74 </v>
  <v type="int" >       76 </v>
  <v type="int" >      143 </v>
  <v type="int" >       91 </v>
  <v type="int" >      118 </v>
  <v type="int" >       93 </v>
  <v type="int" >      119 </v>
  <v type="int" >       58 </v>
  <v type="int" >       57 </v>
  <v type="int" >        7 </v>
  <v type="int" >       11 </v>
  <v type="int" >       19 </v>
  <v type="int" >       23 </v>
  <v type="int" >       78 </v>
  <v type="int" >       80 </v>
  <v type="int" >        6 </v>
  <v type="int" >       10 </v>
  <v type="int" >       99 </v>
  <v type="int" >      105 </v>
  <v type="int" >       34 </v>
  <v type="int" >       36 </v>
  <v type="int" >      123 </v>
  <v type="int" >       48 </v>
  <v type="int" >       47 </v>
  <v type="int" >      127 </v>
  <v type="int" >       96 </v>
  <v type="int" >      136 </v>
  <v type="int" >      144 </v>
  <v type="int" >      120 </v>
  <v type="int" >       70 </v>
  <v type="int" >       68 </v>
  <v type="int" >       64 </v>
  <v type="int" >      132 </v>
  <v type="int" >       59 </v>
  <v type="int" >       60 </v>
  <v type="int" >      107 </v>
  <v type="int" >      129 </v>
  <v type="int" >        4 </v>
  <v type="int" >       95 </v>
  <v type="int" >       82 </v>
  <v type="int" >       84 </v>
  <v type="int" >       71 </v>
  <v type="int" >        8 </v>
  <v type="int" >       12 </v>
  <v type="int" >      131 </v>
  <v type="int" >       72 </v>
 </varray>
 <kpoints>
  <generation param="Gamma">
   <v type="int" name="divisions">       2        2        2 </v>
   <v name="usershift">      0.00000000       0.00000000       0.00000000 </v>
   <v name="genvec1">      0.50000000       0.00000000       0.00000000 </v>
   <v name="genvec2">      0.00000000       0.50000000       0.00000000 </v>
   <v name="genvec3">      0.00000000       0.00000000       0.50000000 </v>
   <v name="shift">      0.00000000       0.00000000       0.00000000 </v>
  </generation>
  <varray name="kpointlist" >
   <v>       0.00000000       0.00000000       0.00000000 </v>
   <v>       0.50000000      -0.00000000       0.00000000 </v>
   <v>       0.00000000       0.50000000       0.00000000 </v>
   <v>       0.50000000       0.50000000       0.00000000 </v>
   <v>       0.00000000       0.00000000       0.50000000 </v>
   <v>       0.50000000      -0.00000000       0.50000000 </v>
   <v>       0.00000000       0.50000000       0.50000000 </v>
   <v>       0.50000000       0.50000000       0.50000000 </v>
  </varray>
  <varray name="weights" >
   <v>       0.12500000 </v>
   <v>       0.12500000 </v>
   <v>       0.12500000 </v>
   <v>       0.12500000 </v>
   <v>       0.12500000 </v>
   <v>       0.12500000 </v>
   <v>       0.12500000 </v>
   <v>       0.12500000 </v>
  </varray>
 </kpoints>
 <parameters>
  <separator name="general" >
   <i type="string" name="SYSTEM">unknown system</i>
   <i type="logical" name="LCOMPAT"> F  </i>
  </separator>
  <separator name="electronic" >
   <i type="string" name="PREC">accura</i>
   <i name="ENMAX">    650.00000000</i>
   <i name="ENAUG">    446.84200000</i>
   <i name="EDIFF">      0.00000001</i>
   <i type="int" name="IALGO">    38</i>
   <i type="int" name="IWAVPR">    10</i>
   <i type="int" name="NBANDS">   806</i>
   <i name="NELECT">   1344.00000000</i>
   <i type="int" name="TURBO">     0</i>
   <i type="int" name="IRESTART">     0</i>
   <i type="int" name="NREBOOT">     0</i>
   <i type="int" name="NMIN">     0</i>
   <i name="EREF">      0.00000000</i>
   <separator name="electronic smearing" >
    <i type="int" name="ISMEAR">     0</i>
    <i name="SIGMA">      0.05000000</i>
    <i name="KSPACING">      0.50000000</i>
    <i type="logical" name="KGAMMA"> T  </i>
   </separator>
   <separator name="electronic projectors" >
    <i type="logical" name="LREAL"> F  </i>
    <v name="ROPT">      0.00000000      0.00000000</v>
    <i type="int" name="LMAXPAW">  -100</i>
    <i type="int" name="LMAXMIX">     2</i>
    <i type="logical" name="NLSPLINE"> F  </i>
   </separator>
   <separator name="electronic startup" >
    <i type="int" name="ISTART">     0</i>
    <i type="int" name="ICHARG">     2</i>
    <i type="int" name="INIWAV">     1</i>
   </separator>
   <separator name="electronic spin" >
    <i type="int" name="ISPIN">     1</i>
    <i type="logical" name="LNONCOLLINEAR"> F  </i>
    <v name="MAGMOM">      1.00000000      1.00000000      1.00000000      1.00000000      1.00000000      1.00000000      1.00000000      1.00000000      1.00000000      1.00000000      1.00000000      1.00000000      1.00000000      1.00000000      1.00000000      1.00000000      1.00000000      1.00000000      1.00000000      1.00000000
      1.00000000      1.00000000      1.00000000      1.00000000      1.00000000      1.00000000      1.00000000      1.00000000      1.00000000      1.00000000      1.00000000      1.00000000      1.00000000      1.00000000      1.00000000      1.00000000      1.00000000      1.00000000      1.00000000      1.00000000
      1.00000000      1.00000000      1.00000000      1.00000000      1.00000000      1.00000000      1.00000000      1.00000000      1.00000000      1.00000000      1.00000000      1.00000000      1.00000000      1.00000000      1.00000000      1.00000000      1.00000000      1.00000000      1.00000000      1.00000000
      1.00000000      1.00000000      1.00000000      1.00000000      1.00000000      1.00000000      1.00000000      1.00000000      1.00000000      1.00000000      1.00000000      1.00000000      1.00000000      1.00000000      1.00000000      1.00000000      1.00000000      1.00000000      1.00000000      1.00000000
      1.00000000      1.00000000      1.00000000      1.00000000      1.00000000      1.00000000      1.00000000      1.00000000      1.00000000      1.00000000      1.00000000      1.00000000      1.00000000      1.00000000      1.00000000      1.00000000      1.00000000      1.00000000      1.00000000      1.00000000
      1.00000000      1.00000000      1.00000000      1.00000000      1.00000000      1.00000000      1.00000000      1.00000000      1.00000000      1.00000000      1.00000000      1.00000000      1.00000000      1.00000000      1.00000000      1.00000000      1.00000000      1.00000000      1.00000000      1.00000000
      1.00000000      1.00000000      1.00000000      1.00000000      1.00000000      1.00000000      1.00000000      1.00000000      1.00000000      1.00000000      1.00000000      1.00000000      1.00000000      1.00000000      1.00000000      1.00000000      1.00000000      1.00000000      1.00000000      1.00000000
      1.00000000      1.00000000      1.00000000      1.00000000</v>
    <i name="NUPDOWN">     -1.00000000</i>
    <i type="logical" name="LSORBIT"> F  </i>
    <v name="SAXIS">      0.00000000      0.00000000      1.00000000</v>
    <i type="logical" name="LSPIRAL"> F  </i>
    <v name="QSPIRAL">      0.00000000      0.00000000      0.00000000</v>
    <i type="logical" name="LZEROZ"> F  </i>
   </separator>
   <separator name="electronic exchange-correlation" >
    <i type="logical" name="LASPH"> T  </i>
    <i type="logical" name="LMETAGGA"> F  </i>
   </separator>
   <separator name="electronic convergence" >
    <i type="int" name="NELM">   200</i>
    <i type="int" name="NELMDL">    -5</i>
    <i type="int" name="NELMIN">     8</i>
    <i name="ENINI">    650.00000000</i>
    <separator name="electronic convergence detail" >
     <i type="logical" name="LDIAG"> T  </i>
     <i type="logical" name="LSUBROT"> F  </i>
     <i name="WEIMIN">      0.00000000</i>
     <i name="EBREAK">      0.00000000</i>
     <i name="DEPER">      0.30000000</i>
     <i type="int" name="NRMM">     4</i>
     <i name="TIME">      0.40000000</i>
    </separator>
   </separator>
   <separator name="electronic mixer" >
    <i name="AMIX">      0.40000000</i>
    <i name="BMIX">      1.00000000</i>
    <i name="AMIN">      0.10000000</i>
    <i name="AMIX_MAG">      1.60000000</i>
    <i name="BMIX_MAG">      1.00000000</i>
    <separator name="electronic mixer details" >
     <i type="int" name="IMIX">     4</i>
     <i type="logical" name="MIXFIRST"> F  </i>
     <i type="int" name="MAXMIX">   -45</i>
     <i name="WC">    100.00000000</i>
     <i type="int" name="INIMIX">     1</i>
     <i type="int" name="MIXPRE">     1</i>
     <i type="int" name="MREMOVE">     5</i>
    </separator>
   </separator>
   <separator name="electronic dipolcorrection" >
    <i type="logical" name="LDIPOL"> F  </i>
    <i type="logical" name="LMONO"> F  </i>
    <i type="int" name="IDIPOL">     0</i>
    <i name="EPSILON">      1.00000000</i>
    <v name="DIPOL">   -100.00000000   -100.00000000   -100.00000000</v>
    <i name="EFIELD">      0.00000000</i>
   </separator>
  </separator>
  <separator name="grids" >
   <i type="int" name="NGX">   120</i>
   <i type="int" name="NGY">   120</i>
   <i type="int" name="NGZ">   126</i>
   <i type="int" name="NGXF">   240</i>
   <i type="int" name="NGYF">   240</i>
   <i type="int" name="NGZF">   252</i>
   <i type="logical" name="ADDGRID"> T  </i>
  </separator>
  <separator name="ionic" >
   <i type="int" name="NSW">     0</i>
   <i type="int" name="IBRION">    -1</i>
   <i type="int" name="MDALGO">     0</i>
   <i type="int" name="ISIF">     3</i>
   <i name="PSTRESS">      0.00000000</i>
   <i name="EDIFFG">      0.00000010</i>
   <i type="int" name="NFREE">     0</i>
   <i name="POTIM">      0.50000000</i>
   <i name="SMASS">     -3.00000000</i>
   <i name="SCALEE">      1.00000000</i>
  </separator>
  <separator name="ionic md" >
   <i name="TEBEG">      0.00010000</i>
   <i name="TEEND">      0.00010000</i>
   <i type="int" name="NBLOCK">     1</i>
   <i type="int" name="KBLOCK">     1</i>
   <i type="int" name="NPACO">   256</i>
   <i name="APACO">     16.00000000</i>
  </separator>
  <separator name="symmetry" >
   <i type="int" name="ISYM">     0</i>
   <i name="SYMPREC">      0.00001000</i>
  </separator>
  <separator name="dos" >
   <i type="int" name="LORBIT">     0</i>
   <v name="RWIGS">     -1.00000000     -1.00000000</v>
   <i type="int" name="NEDOS">   301</i>
   <i name="EMIN">     10.00000000</i>
   <i name="EMAX">    -10.00000000</i>
   <i name="EFERMI">      0.00000000</i>
  </separator>
  <separator name="writing" >
   <i type="int" name="NWRITE">     2</i>
   <i type="logical" name="LWAVE"> F  </i>
   <i type="logical" name="LDOWNSAMPLE"> F  </i>
   <i type="logical" name="LCHARG"> T  </i>
   <i type="logical" name="LPARD"> F  </i>
   <i type="logical" name="LVTOT"> F  </i>
   <i type="logical" name="LVHAR"> F  </i>
   <i type="logical" name="LELF"> F  </i>
   <i type="logical" name="LOPTICS"> F  </i>
   <v name="STM">      0.00000000      0.00000000      0.00000000      0.00000000      0.00000000      0.00000000      0.00000000</v>
  </separator>
  <separator name="performance" >
   <i type="int" name="NPAR">     1</i>
   <i type="int" name="NSIM">     4</i>
   <i type="int" name="NBLK">    -1</i>
   <i type="logical" name="LPLANE"> T  </i>
   <i type="logical" name="LSCALAPACK"> T  </i>
   <i type="logical" name="LSCAAWARE"> F  </i>
   <i type="logical" name="LSCALU"> F  </i>
   <i type="logical" name="LASYNC"> F  </i>
   <i type="logical" name="LORBITALREAL"> F  </i>
  </separator>
  <separator name="miscellaneous" >
   <i type="int" name="IDIOT">     3</i>
   <i type="int" name="ISPECIAL">     0</i>
   <i type="logical" name="LMUSIC"> F  </i>
   <v name="POMASS">    107.86800000     78.96000000</v>
   <v name="DARWINR">      0.00000000      0.00000000</v>
   <v name="DARWINV">      1.00000000      1.00000000</v>
   <i type="logical" name="LCORR"> T  </i>
  </separator>
  <i type="logical" name="GGA_COMPAT"> T  </i>
  <i type="logical" name="LBERRY"> F  </i>
  <i type="int" name="ICORELEVEL">     0</i>
  <i type="logical" name="LDAU"> F  </i>
  <i type="int" name="I_CONSTRAINED_M">     0</i>
  <separator name="electronic exchange-correlation" >
   <i type="string" name="GGA">PS</i>
   <i type="int" name="VOSKOWN">     0</i>
   <i type="logical" name="LHFCALC"> F  </i>
   <i type="string" name="PRECFOCK"></i>
   <i type="logical" name="LSYMGRAD"> F  </i>
   <i type="logical" name="LHFONE"> F  </i>
   <i type="logical" name="LRHFCALC"> F  </i>
   <i type="logical" name="LTHOMAS"> F  </i>
   <i type="logical" name="LMODELHF"> F  </i>
   <i name="ENCUT4O">     -1.00000000</i>
   <i type="int" name="EXXOEP">     0</i>
   <i type="int" name="FOURORBIT">     0</i>
   <i name="AEXX">      0.00000000</i>
   <i name="HFALPHA">      0.00000000</i>
   <i name="MCALPHA">      0.00000000</i>
   <i name="ALDAX">      1.00000000</i>
   <i name="AGGAX">      1.00000000</i>
   <i name="ALDAC">      1.00000000</i>
   <i name="AGGAC">      1.00000000</i>
   <i type="int" name="NKREDX">     1</i>
   <i type="int" name="NKREDY">     1</i>
   <i type="int" name="NKREDZ">     1</i>
   <i type="logical" name="SHIFTRED"> F  </i>
   <i type="logical" name="ODDONLY"> F  </i>
   <i type="logical" name="EVENONLY"> F  </i>
   <i type="int" name="LMAXFOCK">     0</i>
   <i type="int" name="NMAXFOCKAE">     0</i>
   <i type="logical" name="LFOCKAEDFT"> F  </i>
   <i name="HFSCREEN">      0.00000000</i>
   <i name="HFSCREENC">      0.00000000</i>
   <i type="int" name="NBANDSGWLOW">     0</i>
  </separator>
  <separator name="vdW DFT" >
   <i type="logical" name="LUSE_VDW"> F  </i>
   <i name="Zab_VDW">     -0.84910000</i>
   <i name="PARAM1">      0.12340000</i>
   <i name="PARAM2">      1.00000000</i>
   <i name="PARAM3">      0.00000000</i>
  </separator>
  <separator name="model GW" >
   <i type="int" name="MODEL_GW">     0</i>
   <i name="MODEL_EPS0">     11.69349825</i>
   <i name="MODEL_ALPHA">      1.00000000</i>
  </separator>
  <separator name="linear response parameters" >
   <i type="logical" name="LEPSILON"> F  </i>
   <i type="logical" name="LRPA"> F  </i>
   <i type="logical" name="LNABLA"> F  </i>
   <i type="logical" name="LVEL"> F  </i>
   <i type="int" name="KINTER">     0</i>
   <i name="CSHIFT">      0.10000000</i>
   <i name="OMEGAMAX">     -1.00000000</i>
   <i name="DEG_THRESHOLD">      0.00200000</i>
   <i name="RTIME">     -0.10000000</i>
   <i name="WPLASMAI">      0.00000000</i>
   <v name="DFIELD">      0.00000000      0.00000000      0.00000000</v>
   <v name="WPLASMA">      0.00000000      0.00000000      0.00000000      0.00000000      0.00000000      0.00000000      0.00000000      0.00000000      0.00000000</v>
  </separator>
  <separator name="orbital magnetization" >
   <i type="logical" name="NUCIND"> F  </i>
   <v name="MAGPOS">      0.00000000      0.00000000      0.00000000</v>
   <i type="logical" name="LNICSALL"> T  </i>
   <i type="logical" name="ORBITALMAG"> F  </i>
   <i type="logical" name="LMAGBLOCH"> F  </i>
   <i type="logical" name="LCHIMAG"> F  </i>
   <i type="logical" name="LGAUGE"> T  </i>
   <i type="int" name="MAGATOM">     0</i>
   <v name="MAGDIPOL">      0.00000000      0.00000000      0.00000000</v>
   <v name="AVECCONST">      0.00000000      0.00000000      0.00000000</v>
  </separator>
  <separator name="response functions" >
   <i type="logical" name="LADDER"> F  </i>
   <i type="logical" name="LRPAFORCE"> F  </i>
   <i type="logical" name="LFXC"> F  </i>
   <i type="logical" name="LHARTREE"> T  </i>
   <i type="int" name="IBSE">     0</i>
   <v type="int" name="KPOINT">    -1     0     0     0</v>
   <i type="logical" name="LTCTE"> F  </i>
   <i type="logical" name="LTETE"> F  </i>
   <i type="logical" name="LTRIPLET"> F  </i>
   <i type="logical" name="LFXCEPS"> F  </i>
   <i type="logical" name="LFXHEG"> F  </i>
   <i type="int" name="NATURALO">     2</i>
   <i type="logical" name="L2ORDER"> F  </i>
   <i type="logical" name="LMP2LT"> F  </i>
   <i type="logical" name="LUSEW"> F  </i>
   <i name="ENCUTGW">     -2.00000000</i>
   <i name="ENCUTGWSOFT">     -2.00000000</i>
   <i name="ENCUTLF">     -1.00000000</i>
   <i type="int" name="LMAXMP2">    -1</i>
   <i name="SCISSOR">      0.00000000</i>
   <i type="int" name="NOMEGA">     0</i>
   <i type="int" name="NOMEGAR">     0</i>
   <i type="int" name="NBANDSGW">    -1</i>
   <i type="int" name="NBANDSO">    -1</i>
   <i type="int" name="NBANDSV">    -1</i>
   <i type="int" name="NELM">   200</i>
   <i type="int" name="NELMHF">     1</i>
   <i type="int" name="DIM">     3</i>
   <i type="int" name="ANTIRES">     0</i>
   <i name="OMEGAMAX">    -30.00000000</i>
   <i name="OMEGAMIN">    -30.00000000</i>
   <i name="OMEGATL">   -200.00000000</i>
   <i type="int" name="OMEGAGRID">   140</i>
   <i name="CSHIFT">     -0.10000000</i>
   <i type="logical" name="SELFENERGY"> F  </i>
   <i type="logical" name="LSPECTRAL"> F  </i>
   <i type="logical" name="LSPECTRALGW"> F  </i>
   <i type="logical" name="LSINGLES"> F  </i>
   <i type="logical" name="LFERMIGW"> F  </i>
   <i type="logical" name="ODDONLYGW"> F  </i>
   <i type="logical" name="EVENONLYGW"> F  </i>
   <i type="int" name="NKREDLFX">     1</i>
   <i type="int" name="NKREDLFY">     1</i>
   <i type="int" name="NKREDLFZ">     1</i>
   <i type="int" name="MAXMEM">  2800</i>
   <i type="int" name="TELESCOPE">     0</i>
   <i type="int" name="TAUPAR">     1</i>
   <i type="int" name="OMEGAPAR">    -1</i>
   <i name="LAMBDA">      1.00000000</i>
  </separator>
  <separator name="External order field" >
   <i name="OFIELD_KAPPA">      0.00000000</i>
   <v name="OFIELD_K">      0.00000000      0.00000000      0.00000000</v>
   <i name="OFIELD_Q6_NEAR">      0.00000000</i>
   <i name="OFIELD_Q6_FAR">      0.00000000</i>
   <i name="OFIELD_A">      0.00000000</i>
  </separator>
 </parameters>
 <atominfo>
  <atoms>     144 </atoms>
  <types>       2 </types>
  <array name="atoms" >
   <dimension dim="1">ion</dimension>
   <field type="string">element</field>
   <field type="int">atomtype</field>
   <set>
    <rc><c>Ag</c><c>   1</c></rc>
    <rc><c>Ag</c><c>   1</c></rc>
    <rc><c>Ag</c><c>   1</c></rc>
    <rc><c>Ag</c><c>   1</c></rc>
    <rc><c>Ag</c><c>   1</c></rc>
    <rc><c>Ag</c><c>   1</c></rc>
    <rc><c>Ag</c><c>   1</c></rc>
    <rc><c>Ag</c><c>   1</c></rc>
    <rc><c>Ag</c><c>   1</c></rc>
    <rc><c>Ag</c><c>   1</c></rc>
    <rc><c>Ag</c><c>   1</c></rc>
    <rc><c>Ag</c><c>   1</c></rc>
    <rc><c>Ag</c><c>   1</c></rc>
    <rc><c>Ag</c><c>   1</c></rc>
    <rc><c>Ag</c><c>   1</c></rc>
    <rc><c>Ag</c><c>   1</c></rc>
    <rc><c>Ag</c><c>   1</c></rc>
    <rc><c>Ag</c><c>   1</c></rc>
    <rc><c>Ag</c><c>   1</c></rc>
    <rc><c>Ag</c><c>   1</c></rc>
    <rc><c>Ag</c><c>   1</c></rc>
    <rc><c>Ag</c><c>   1</c></rc>
    <rc><c>Ag</c><c>   1</c></rc>
    <rc><c>Ag</c><c>   1</c></rc>
    <rc><c>Ag</c><c>   1</c></rc>
    <rc><c>Ag</c><c>   1</c></rc>
    <rc><c>Ag</c><c>   1</c></rc>
    <rc><c>Ag</c><c>   1</c></rc>
    <rc><c>Ag</c><c>   1</c></rc>
    <rc><c>Ag</c><c>   1</c></rc>
    <rc><c>Ag</c><c>   1</c></rc>
    <rc><c>Ag</c><c>   1</c></rc>
    <rc><c>Ag</c><c>   1</c></rc>
    <rc><c>Ag</c><c>   1</c></rc>
    <rc><c>Ag</c><c>   1</c></rc>
    <rc><c>Ag</c><c>   1</c></rc>
    <rc><c>Ag</c><c>   1</c></rc>
    <rc><c>Ag</c><c>   1</c></rc>
    <rc><c>Ag</c><c>   1</c></rc>
    <rc><c>Ag</c><c>   1</c></rc>
    <rc><c>Ag</c><c>   1</c></rc>
    <rc><c>Ag</c><c>   1</c></rc>
    <rc><c>Ag</c><c>   1</c></rc>
    <rc><c>Ag</c><c>   1</c></rc>
    <rc><c>Ag</c><c>   1</c></rc>
    <rc><c>Ag</c><c>   1</c></rc>
    <rc><c>Ag</c><c>   1</c></rc>
    <rc><c>Ag</c><c>   1</c></rc>
    <rc><c>Ag</c><c>   1</c></rc>
    <rc><c>Ag</c><c>   1</c></rc>
    <rc><c>Ag</c><c>   1</c></rc>
    <rc><c>Ag</c><c>   1</c></rc>
    <rc><c>Ag</c><c>   1</c></rc>
    <rc><c>Ag</c><c>   1</c></rc>
    <rc><c>Ag</c><c>   1</c></rc>
    <rc><c>Ag</c><c>   1</c></rc>
    <rc><c>Ag</c><c>   1</c></rc>
    <rc><c>Ag</c><c>   1</c></rc>
    <rc><c>Ag</c><c>   1</c></rc>
    <rc><c>Ag</c><c>   1</c></rc>
    <rc><c>Ag</c><c>   1</c></rc>
    <rc><c>Ag</c><c>   1</c></rc>
    <rc><c>Ag</c><c>   1</c></rc>
    <rc><c>Ag</c><c>   1</c></rc>
    <rc><c>Ag</c><c>   1</c></rc>
    <rc><c>Ag</c><c>   1</c></rc>
    <rc><c>Ag</c><c>   1</c></rc>
    <rc><c>Ag</c><c>   1</c></rc>
    <rc><c>Ag</c><c>   1</c></rc>
    <rc><c>Ag</c><c>   1</c></rc>
    <rc><c>Ag</c><c>   1</c></rc>
    <rc><c>Ag</c><c>   1</c></rc>
    <rc><c>Ag</c><c>   1</c></rc>
    <rc><c>Ag</c><c>   1</c></rc>
    <rc><c>Ag</c><c>   1</c></rc>
    <rc><c>Ag</c><c>   1</c></rc>
    <rc><c>Ag</c><c>   1</c></rc>
    <rc><c>Ag</c><c>   1</c></rc>
    <rc><c>Ag</c><c>   1</c></rc>
    <rc><c>Ag</c><c>   1</c></rc>
    <rc><c>Ag</c><c>   1</c></rc>
    <rc><c>Ag</c><c>   1</c></rc>
    <rc><c>Ag</c><c>   1</c></rc>
    <rc><c>Ag</c><c>   1</c></rc>
    <rc><c>Ag</c><c>   1</c></rc>
    <rc><c>Ag</c><c>   1</c></rc>
    <rc><c>Ag</c><c>   1</c></rc>
    <rc><c>Ag</c><c>   1</c></rc>
    <rc><c>Ag</c><c>   1</c></rc>
    <rc><c>Ag</c><c>   1</c></rc>
    <rc><c>Ag</c><c>   1</c></rc>
    <rc><c>Ag</c><c>   1</c></rc>
    <rc><c>Ag</c><c>   1</c></rc>
    <rc><c>Ag</c><c>   1</c></rc>
    <rc><c>Ag</c><c>   1</c></rc>
    <rc><c>Ag</c><c>   1</c></rc>
    <rc><c>Se</c><c>   2</c></rc>
    <rc><c>Se</c><c>   2</c></rc>
    <rc><c>Se</c><c>   2</c></rc>
    <rc><c>Se</c><c>   2</c></rc>
    <rc><c>Se</c><c>   2</c></rc>
    <rc><c>Se</c><c>   2</c></rc>
    <rc><c>Se</c><c>   2</c></rc>
    <rc><c>Se</c><c>   2</c></rc>
    <rc><c>Se</c><c>   2</c></rc>
    <rc><c>Se</c><c>   2</c></rc>
    <rc><c>Se</c><c>   2</c></rc>
    <rc><c>Se</c><c>   2</c></rc>
    <rc><c>Se</c><c>   2</c></rc>
    <rc><c>Se</c><c>   2</c></rc>
    <rc><c>Se</c><c>   2</c></rc>
    <rc><c>Se</c><c>   2</c></rc>
    <rc><c>Se</c><c>   2</c></rc>
    <rc><c>Se</c><c>   2</c></rc>
    <rc><c>Se</c><c>   2</c></rc>
    <rc><c>Se</c><c>   2</c></rc>
    <rc><c>Se</c><c>   2</c></rc>
    <rc><c>Se</c><c>   2</c></rc>
    <rc><c>Se</c><c>   2</c></rc>
    <rc><c>Se</c><c>   2</c></rc>
    <rc><c>Se</c><c>   2</c></rc>
    <rc><c>Se</c><c>   2</c></rc>
    <rc><c>Se</c><c>   2</c></rc>
    <rc><c>Se</c><c>   2</c></rc>
    <rc><c>Se</c><c>   2</c></rc>
    <rc><c>Se</c><c>   2</c></rc>
    <rc><c>Se</c><c>   2</c></rc>
    <rc><c>Se</c><c>   2</c></rc>
    <rc><c>Se</c><c>   2</c></rc>
    <rc><c>Se</c><c>   2</c></rc>
    <rc><c>Se</c><c>   2</c></rc>
    <rc><c>Se</c><c>   2</c></rc>
    <rc><c>Se</c><c>   2</c></rc>
    <rc><c>Se</c><c>   2</c></rc>
    <rc><c>Se</c><c>   2</c></rc>
    <rc><c>Se</c><c>   2</c></rc>
    <rc><c>Se</c><c>   2</c></rc>
    <rc><c>Se</c><c>   2</c></rc>
    <rc><c>Se</c><c>   2</c></rc>
    <rc><c>Se</c><c>   2</c></rc>
    <rc><c>Se</c><c>   2</c></rc>
    <rc><c>Se</c><c>   2</c></rc>
    <rc><c>Se</c><c>   2</c></rc>
    <rc><c>Se</c><c>   2</c></rc>
   </set>
  </array>
  <array name="atomtypes" >
   <dimension dim="1">type</dimension>
   <field type="int">atomspertype</field>
   <field type="string">element</field>
   <field>mass</field>
   <field>valence</field>
   <field type="string">pseudopotential</field>
   <set>
    <rc><c>  96</c><c>Ag</c><c>    107.86800000</c><c>     11.00000000</c><c>  PAW_PBE Ag 02Apr2005                  </c></rc>
    <rc><c>  48</c><c>Se</c><c>     78.96000000</c><c>      6.00000000</c><c>  PAW_PBE Se 06Sep2000                  </c></rc>
   </set>
  </array>
 </atominfo>
 <structure name="initialpos" >
  <crystal>
   <varray name="basis" >
    <v>      14.01039598       0.00139138       0.00000000 </v>
    <v>      -0.00150196      13.76691092       0.00000000 </v>
    <v>       0.00000000       0.00000000      14.55019386 </v>
   </varray>
   <i name="volume">   2806.43958022 </i>
   <varray name="rec_basis" >
    <v>       0.07137557       0.00000779       0.00000000 </v>
    <v>      -0.00000721       0.07263794       0.00000000 </v>
    <v>       0.00000000       0.00000000       0.06872761 </v>
   </varray>
  </crystal>
  <varray name="positions" >
   <v>       0.42987898       0.17167077       0.33247735 </v>
   <v>       0.92987898       0.17167077       0.33247735 </v>
   <v>       0.42987898       0.67167077       0.33247735 </v>
   <v>       0.92987898       0.67167077       0.33247735 </v>
   <v>       0.42987898       0.17167077       0.66581068 </v>
   <v>       0.92987898       0.17167077       0.66581068 </v>
   <v>       0.42987898       0.67167077       0.66581068 </v>
   <v>       0.92987898       0.67167077       0.66581068 </v>
   <v>       0.42987898       0.17167077       0.99914401 </v>
   <v>       0.92987898       0.17167077       0.99914401 </v>
   <v>       0.42987898       0.67167077       0.99914401 </v>
   <v>       0.92987898       0.67167077       0.99914401 </v>
   <v>       0.07012102       0.32832923       0.33247735 </v>
   <v>       0.57012102       0.32832923       0.33247735 </v>
   <v>       0.07012102       0.82832923       0.33247735 </v>
   <v>       0.57012102       0.82832923       0.33247735 </v>
   <v>       0.07012102       0.32832923       0.66581068 </v>
   <v>       0.57012102       0.32832923       0.66581068 </v>
   <v>       0.07012102       0.82832923       0.66581068 </v>
   <v>       0.57012102       0.82832923       0.66581068 </v>
   <v>       0.07012102       0.32832923       0.99914401 </v>
   <v>       0.57012102       0.32832923       0.99914401 </v>
   <v>       0.07012102       0.82832923       0.99914401 </v>
   <v>       0.57012102       0.82832923       0.99914401 </v>
   <v>       0.32012053       0.42167367       0.05641075 </v>
   <v>       0.82012053       0.42167367       0.05641075 </v>
   <v>       0.32012053       0.92167367       0.05641075 </v>
   <v>       0.82012053       0.92167367       0.05641075 </v>
   <v>       0.32012053       0.42167367       0.38974408 </v>
   <v>       0.82012053       0.42167367       0.38974408 </v>
   <v>       0.32012053       0.92167367       0.38974408 </v>
   <v>       0.82012053       0.92167367       0.38974408 </v>
   <v>       0.32012053       0.42167367       0.72307741 </v>
   <v>       0.82012053       0.42167367       0.72307741 </v>
   <v>       0.32012053       0.92167367       0.72307741 </v>
   <v>       0.82012053       0.92167367       0.72307741 </v>
   <v>       0.17987947       0.07832633       0.05641075 </v>
   <v>       0.67987947       0.07832633       0.05641075 </v>
   <v>       0.17987947       0.57832633       0.05641075 </v>
   <v>       0.67987947       0.57832633       0.05641075 </v>
   <v>       0.17987947       0.07832633       0.38974408 </v>
   <v>       0.67987947       0.07832633       0.38974408 </v>
   <v>       0.17987947       0.57832633       0.38974408 </v>
   <v>       0.67987947       0.57832633       0.38974408 </v>
   <v>       0.17987947       0.07832633       0.72307741 </v>
   <v>       0.67987947       0.07832633       0.72307741 </v>
   <v>       0.17987947       0.57832633       0.72307741 </v>
   <v>       0.67987947       0.57832633       0.72307741 </v>
   <v>       0.17987776       0.32832369       0.16580856 </v>
   <v>       0.67987776       0.32832369       0.16580856 </v>
   <v>       0.17987776       0.82832369       0.16580856 </v>
   <v>       0.67987776       0.82832369       0.16580856 </v>
   <v>       0.17987776       0.32832369       0.49914189 </v>
   <v>       0.67987776       0.32832369       0.49914189 </v>
   <v>       0.17987776       0.82832369       0.49914189 </v>
   <v>       0.67987776       0.82832369       0.49914189 </v>
   <v>       0.17987776       0.32832369       0.83247522 </v>
   <v>       0.67987776       0.32832369       0.83247522 </v>
   <v>       0.17987776       0.82832369       0.83247522 </v>
   <v>       0.67987776       0.82832369       0.83247522 </v>
   <v>       0.32012224       0.17167631       0.16580856 </v>
   <v>       0.82012224       0.17167631       0.16580856 </v>
   <v>       0.32012224       0.67167631       0.16580856 </v>
   <v>       0.82012224       0.67167631       0.16580856 </v>
   <v>       0.32012224       0.17167631       0.49914189 </v>
   <v>       0.82012224       0.17167631       0.49914189 </v>
   <v>       0.32012224       0.67167631       0.49914189 </v>
   <v>       0.82012224       0.67167631       0.49914189 </v>
   <v>       0.32012224       0.17167631       0.83247522 </v>
   <v>       0.82012224       0.17167631       0.83247522 </v>
   <v>       0.32012224       0.67167631       0.83247522 </v>
   <v>       0.82012224       0.67167631       0.83247522 </v>
   <v>       0.42987656       0.42094857       0.22308000 </v>
   <v>       0.92987656       0.42167494       0.22308000 </v>
   <v>       0.42987656       0.92167494       0.22308000 </v>
   <v>       0.92987656       0.92167494       0.22308000 </v>
   <v>       0.42987656       0.42167494       0.55641333 </v>
   <v>       0.92987656       0.42167494       0.55641333 </v>
   <v>       0.42987656       0.92167494       0.55641333 </v>
   <v>       0.92987656       0.92167494       0.55641333 </v>
   <v>       0.42987656       0.42167494       0.88974666 </v>
   <v>       0.92987656       0.42167494       0.88974666 </v>
   <v>       0.42987656       0.92167494       0.88974666 </v>
   <v>       0.92987656       0.92167494       0.88974666 </v>
   <v>       0.07012344       0.07832506       0.22308000 </v>
   <v>       0.57012344       0.07832506       0.22308000 </v>
   <v>       0.07012344       0.57832506       0.22308000 </v>
   <v>       0.57012344       0.57832506       0.22308000 </v>
   <v>       0.07012344       0.07832506       0.55641333 </v>
   <v>       0.57012344       0.07832506       0.55641333 </v>
   <v>       0.07012344       0.57832506       0.55641333 </v>
   <v>       0.57012344       0.57832506       0.55641333 </v>
   <v>       0.07012344       0.07832506       0.88974666 </v>
   <v>       0.57012344       0.07832506       0.88974666 </v>
   <v>       0.07012344       0.57832506       0.88974666 </v>
   <v>       0.57012344       0.57832506       0.88974666 </v>
   <v>       0.00000000       0.00000000       0.05479365 </v>
   <v>       0.50000000       0.00000000       0.05479365 </v>
   <v>       0.00000000       0.50000000       0.05479365 </v>
   <v>       0.50000000       0.50000000       0.05479365 </v>
   <v>       0.00000000       0.00000000       0.38812698 </v>
   <v>       0.50000000       0.00000000       0.38812698 </v>
   <v>       0.00000000       0.50000000       0.38812698 </v>
   <v>       0.50000000       0.50000000       0.38812698 </v>
   <v>       0.00000000       0.00000000       0.72146032 </v>
   <v>       0.50000000       0.00000000       0.72146032 </v>
   <v>       0.00000000       0.50000000       0.72146032 </v>
   <v>       0.50000000       0.50000000       0.72146032 </v>
   <v>       0.25000000       0.00000000       0.22145206 </v>
   <v>       0.75000000       0.00000000       0.22145206 </v>
   <v>       0.25000000       0.50000000       0.22145206 </v>
   <v>       0.75000000       0.50000000       0.22145206 </v>
   <v>       0.25000000       0.00000000       0.55478539 </v>
   <v>       0.75000000       0.00000000       0.55478539 </v>
   <v>       0.25000000       0.50000000       0.55478539 </v>
   <v>       0.75000000       0.50000000       0.55478539 </v>
   <v>       0.25000000       0.00000000       0.88811873 </v>
   <v>       0.75000000       0.00000000       0.88811873 </v>
   <v>       0.25000000       0.50000000       0.88811873 </v>
   <v>       0.75000000       0.50000000       0.88811873 </v>
   <v>       0.00000000       0.25000000       0.16743769 </v>
   <v>       0.50000000       0.25000000       0.16743769 </v>
   <v>       0.00000000       0.75000000       0.16743769 </v>
   <v>       0.50000000       0.75000000       0.16743769 </v>
   <v>       0.00000000       0.25000000       0.50077102 </v>
   <v>       0.50000000       0.25000000       0.50077102 </v>
   <v>       0.00000000       0.75000000       0.50077102 </v>
   <v>       0.50000000       0.75000000       0.50077102 </v>
   <v>       0.00000000       0.25000000       0.83410435 </v>
   <v>       0.50000000       0.25000000       0.83410435 </v>
   <v>       0.00000000       0.75000000       0.83410435 </v>
   <v>       0.50000000       0.75000000       0.83410435 </v>
   <v>       0.25000000       0.25000000       0.00076332 </v>
   <v>       0.75000000       0.25000000       0.00076332 </v>
   <v>       0.25000000       0.75000000       0.00076332 </v>
   <v>       0.75000000       0.75000000       0.00076332 </v>
   <v>       0.25000000       0.25000000       0.33409665 </v>
   <v>       0.75000000       0.25000000       0.33409665 </v>
   <v>       0.25000000       0.75000000       0.33409665 </v>
   <v>       0.75000000       0.75000000       0.33409665 </v>
   <v>       0.25000000       0.25000000       0.66742999 </v>
   <v>       0.75000000       0.25000000       0.66742999 </v>
   <v>       0.25000000       0.75000000       0.66742999 </v>
   <v>       0.75000000       0.75000000       0.66742999 </v>
  </varray>
 </structure>
 <calculation>
  <scstep>
   <time name="dav">  916.46  918.74</time>
   <time name="total">  919.78  922.08</time>
   <energy>
    <i name="alphaZ">   4890.97834259 </i>
    <i name="ewald"> -98843.22853721 </i>
    <i name="hartreedc"> -25789.04975727 </i>
    <i name="XCdc">   -889.86268942 </i>
    <i name="pawpsdc"> 106286.73805879 </i>
    <i name="pawaedc">-101298.59693205 </i>
    <i name="eentropy">     -0.04256686 </i>
    <i name="bandstr">  14366.17140735 </i>
    <i name="atom"> 111881.97810035 </i>
    <i name="e_fr_energy">  10605.08542628 </i>
    <i name="e_wo_entrp">  10605.12799313 </i>
    <i name="e_0_energy">  10605.10670971 </i>
   </energy>
  </scstep>
  <scstep>
   <time name="dav">  942.99  945.37</time>
   <time name="total">  942.99  945.38</time>
   <energy>
    <i name="e_fr_energy">    151.47825524 </i>
    <i name="e_wo_entrp">    151.49134068 </i>
    <i name="e_0_energy">    151.48479796 </i>
   </energy>
  </scstep>
  <scstep>
   <time name="dav">  998.52 1001.07</time>
   <time name="total">  998.53 1001.08</time>
   <energy>
    <i name="e_fr_energy">   -517.89746745 </i>
    <i name="e_wo_entrp">   -517.89137805 </i>
    <i name="e_0_energy">   -517.89442275 </i>
   </energy>
  </scstep>
  <scstep>
   <time name="dav">  961.95  964.42</time>
   <time name="total">  961.95  964.43</time>
   <energy>
    <i name="e_fr_energy">   -535.41588137 </i>
    <i name="e_wo_entrp">   -535.41042935 </i>
    <i name="e_0_energy">   -535.41315536 </i>
   </energy>
  </scstep>
  <scstep>
   <time name="dav">  980.12  982.64</time>
   <time name="total">  994.09  996.66</time>
   <energy>
    <i name="e_fr_energy">   -535.67128611 </i>
    <i name="e_wo_entrp">   -535.66582554 </i>
    <i name="e_0_energy">   -535.66855582 </i>
   </energy>
  </scstep>
  <scstep>
   <time name="dav">  952.64  955.00</time>
   <time name="total">  970.30  972.70</time>
   <energy>
    <i name="e_fr_energy">   -504.98475481 </i>
    <i name="e_wo_entrp">   -504.96927967 </i>
    <i name="e_0_energy">   -504.97701724 </i>
   </energy>
  </scstep>
  <scstep>
   <time name="dav">  952.87  955.32</time>
   <time name="total">  971.11  973.61</time>
   <energy>
    <i name="e_fr_energy">   -505.65733916 </i>
    <i name="e_wo_entrp">   -505.64159214 </i>
    <i name="e_0_energy">   -505.64946565 </i>
   </energy>
  </scstep>
  <scstep>
   <time name="dav">  973.60  976.05</time>
   <time name="total">  991.98  994.50</time>
   <energy>
    <i name="e_fr_energy">   -505.18197713 </i>
    <i name="e_wo_entrp">   -505.16737582 </i>
    <i name="e_0_energy">   -505.17467648 </i>
   </energy>
  </scstep>
  <scstep>
   <time name="dav">  954.61  957.05</time>
   <time name="total">  972.64  975.13</time>
   <energy>
    <i name="e_fr_energy">   -505.12632262 </i>
    <i name="e_wo_entrp">   -505.11110959 </i>
    <i name="e_0_energy">   -505.11871610 </i>
   </energy>
  </scstep>
  <scstep>
   <time name="dav">  941.94  944.30</time>
   <time name="total">  959.76  962.25</time>
   <energy>
    <i name="e_fr_energy">   -505.12844896 </i>
    <i name="e_wo_entrp">   -505.11317830 </i>
    <i name="e_0_energy">   -505.12081363 </i>
   </energy>
  </scstep>
  <scstep>
   <time name="dav">  960.15  962.45</time>
   <time name="total">  977.77  980.12</time>
   <energy>
    <i name="e_fr_energy">   -505.12832628 </i>
    <i name="e_wo_entrp">   -505.11312376 </i>
    <i name="e_0_energy">   -505.12072502 </i>
   </energy>
  </scstep>
  <scstep>
   <time name="dav">  948.58  950.93</time>
   <time name="total">  966.39  968.78</time>
   <energy>
    <i name="e_fr_energy">   -505.12828391 </i>
    <i name="e_wo_entrp">   -505.11306108 </i>
    <i name="e_0_energy">   -505.12067249 </i>
   </energy>
  </scstep>
  <scstep>
   <time name="dav"> 1025.52 1028.12</time>
   <time name="total"> 1043.42 1046.06</time>
   <energy>
    <i name="e_fr_energy">   -505.12828396 </i>
    <i name="e_wo_entrp">   -505.11306406 </i>
    <i name="e_0_energy">   -505.12067401 </i>
   </energy>
  </scstep>
  <scstep>
   <time name="dav">  966.54  968.94</time>
   <time name="total">  984.03  986.48</time>
   <energy>
    <i name="e_fr_energy">   -505.12828283 </i>
    <i name="e_wo_entrp">   -505.11306401 </i>
    <i name="e_0_energy">   -505.12067342 </i>
   </energy>
  </scstep>
  <scstep>
   <time name="dav">  988.81  991.28</time>
   <time name="total"> 1007.31 1009.82</time>
   <energy>
    <i name="e_fr_energy">   -505.12828132 </i>
    <i name="e_wo_entrp">   -505.11306272 </i>
    <i name="e_0_energy">   -505.12067202 </i>
   </energy>
  </scstep>
  <scstep>
   <time name="dav">  902.26  904.44</time>
   <time name="total">  922.18  924.40</time>
   <energy>
    <i name="e_fr_energy">   -505.12828134 </i>
    <i name="e_wo_entrp">   -505.11306293 </i>
    <i name="e_0_energy">   -505.12067214 </i>
   </energy>
  </scstep>
  <scstep>
   <time name="dav">  606.72  608.21</time>
   <time name="total">  624.45  626.00</time>
   <energy>
    <i name="e_fr_energy">   -505.12828135 </i>
    <i name="e_wo_entrp">   -505.11306287 </i>
    <i name="e_0_energy">   -505.12067211 </i>
   </energy>
  </scstep>
  <scstep>
   <time name="dav">  589.64  591.31</time>
   <time name="total">  607.79  609.52</time>
   <energy>
    <i name="e_fr_energy">   -505.12828134 </i>
    <i name="e_wo_entrp">   -505.11306283 </i>
    <i name="e_0_energy">   -505.12067209 </i>
   </energy>
  </scstep>
  <scstep>
   <time name="dav">  579.65  581.25</time>
   <time name="total">  583.05  584.67</time>
   <energy>
    <i name="alphaZ">   4890.97834259 </i>
    <i name="ewald"> -98843.22853721 </i>
    <i name="hartreedc"> -24657.87795505 </i>
    <i name="XCdc">   -922.44916789 </i>
    <i name="pawpsdc"> 122252.67161673 </i>
    <i name="pawaedc">-117444.93213093 </i>
    <i name="eentropy">     -0.01521852 </i>
    <i name="bandstr">   2337.74666859 </i>
    <i name="atom"> 111881.97810035 </i>
    <i name="e_fr_energy">   -505.12828134 </i>
    <i name="e_wo_entrp">   -505.11306282 </i>
    <i name="e_0_energy">   -505.12067208 </i>
   </energy>
  </scstep>
  <structure>
   <crystal>
    <varray name="basis" >
     <v>      14.01039598       0.00139138       0.00000000 </v>
     <v>      -0.00150196      13.76691092       0.00000000 </v>
     <v>       0.00000000       0.00000000      14.55019386 </v>
    </varray>
    <i name="volume">   2806.43958022 </i>
    <varray name="rec_basis" >
     <v>       0.07137557       0.00000779       0.00000000 </v>
     <v>      -0.00000721       0.07263794       0.00000000 </v>
     <v>       0.00000000       0.00000000       0.06872761 </v>
    </varray>
   </crystal>
   <varray name="positions" >
    <v>       0.42987898       0.17167077       0.33247735 </v>
    <v>       0.92987898       0.17167077       0.33247735 </v>
    <v>       0.42987898       0.67167077       0.33247735 </v>
    <v>       0.92987898       0.67167077       0.33247735 </v>
    <v>       0.42987898       0.17167077       0.66581068 </v>
    <v>       0.92987898       0.17167077       0.66581068 </v>
    <v>       0.42987898       0.67167077       0.66581068 </v>
    <v>       0.92987898       0.67167077       0.66581068 </v>
    <v>       0.42987898       0.17167077       0.99914401 </v>
    <v>       0.92987898       0.17167077       0.99914401 </v>
    <v>       0.42987898       0.67167077       0.99914401 </v>
    <v>       0.92987898       0.67167077       0.99914401 </v>
    <v>       0.07012102       0.32832923       0.33247735 </v>
    <v>       0.57012102       0.32832923       0.33247735 </v>
    <v>       0.07012102       0.82832923       0.33247735 </v>
    <v>       0.57012102       0.82832923       0.33247735 </v>
    <v>       0.07012102       0.32832923       0.66581068 </v>
    <v>       0.57012102       0.32832923       0.66581068 </v>
    <v>       0.07012102       0.82832923       0.66581068 </v>
    <v>       0.57012102       0.82832923       0.66581068 </v>
    <v>       0.07012102       0.32832923       0.99914401 </v>
    <v>       0.57012102       0.32832923       0.99914401 </v>
    <v>       0.07012102       0.82832923       0.99914401 </v>
    <v>       0.57012102       0.82832923       0.99914401 </v>
    <v>       0.32012053       0.42167367       0.05641075 </v>
    <v>       0.82012053       0.42167367       0.05641075 </v>
    <v>       0.32012053       0.92167367       0.05641075 </v>
    <v>       0.82012053       0.92167367       0.05641075 </v>
    <v>       0.32012053       0.42167367       0.38974408 </v>
    <v>       0.82012053       0.42167367       0.38974408 </v>
    <v>       0.32012053       0.92167367       0.38974408 </v>
    <v>       0.82012053       0.92167367       0.38974408 </v>
    <v>       0.32012053       0.42167367       0.72307741 </v>
    <v>       0.82012053       0.42167367       0.72307741 </v>
    <v>       0.32012053       0.92167367       0.72307741 </v>
    <v>       0.82012053       0.92167367       0.72307741 </v>
    <v>       0.17987947       0.07832633       0.05641075 </v>
    <v>       0.67987947       0.07832633       0.05641075 </v>
    <v>       0.17987947       0.57832633       0.05641075 </v>
    <v>       0.67987947       0.57832633       0.05641075 </v>
    <v>       0.17987947       0.07832633       0.38974408 </v>
    <v>       0.67987947       0.07832633       0.38974408 </v>
    <v>       0.17987947       0.57832633       0.38974408 </v>
    <v>       0.67987947       0.57832633       0.38974408 </v>
    <v>       0.17987947       0.07832633       0.72307741 </v>
    <v>       0.67987947       0.07832633       0.72307741 </v>
    <v>       0.17987947       0.57832633       0.72307741 </v>
    <v>       0.67987947       0.57832633       0.72307741 </v>
    <v>       0.17987776       0.32832369       0.16580856 </v>
    <v>       0.67987776       0.32832369       0.16580856 </v>
    <v>       0.17987776       0.82832369       0.16580856 </v>
    <v>       0.67987776       0.82832369       0.16580856 </v>
    <v>       0.17987776       0.32832369       0.49914189 </v>
    <v>       0.67987776       0.32832369       0.49914189 </v>
    <v>       0.17987776       0.82832369       0.49914189 </v>
    <v>       0.67987776       0.82832369       0.49914189 </v>
    <v>       0.17987776       0.32832369       0.83247522 </v>
    <v>       0.67987776       0.32832369       0.83247522 </v>
    <v>       0.17987776       0.82832369       0.83247522 </v>
    <v>       0.67987776       0.82832369       0.83247522 </v>
    <v>       0.32012224       0.17167631       0.16580856 </v>
    <v>       0.82012224       0.17167631       0.16580856 </v>
    <v>       0.32012224       0.67167631       0.16580856 </v>
    <v>       0.82012224       0.67167631       0.16580856 </v>
    <v>       0.32012224       0.17167631       0.49914189 </v>
    <v>       0.82012224       0.17167631       0.49914189 </v>
    <v>       0.32012224       0.67167631       0.49914189 </v>
    <v>       0.82012224       0.67167631       0.49914189 </v>
    <v>       0.32012224       0.17167631       0.83247522 </v>
    <v>       0.82012224       0.17167631       0.83247522 </v>
    <v>       0.32012224       0.67167631       0.83247522 </v>
    <v>       0.82012224       0.67167631       0.83247522 </v>
    <v>       0.42987656       0.42094857       0.22308000 </v>
    <v>       0.92987656       0.42167494       0.22308000 </v>
    <v>       0.42987656       0.92167494       0.22308000 </v>
    <v>       0.92987656       0.92167494       0.22308000 </v>
    <v>       0.42987656       0.42167494       0.55641333 </v>
    <v>       0.92987656       0.42167494       0.55641333 </v>
    <v>       0.42987656       0.92167494       0.55641333 </v>
    <v>       0.92987656       0.92167494       0.55641333 </v>
    <v>       0.42987656       0.42167494       0.88974666 </v>
    <v>       0.92987656       0.42167494       0.88974666 </v>
    <v>       0.42987656       0.92167494       0.88974666 </v>
    <v>       0.92987656       0.92167494       0.88974666 </v>
    <v>       0.07012344       0.07832506       0.22308000 </v>
    <v>       0.57012344       0.07832506       0.22308000 </v>
    <v>       0.07012344       0.57832506       0.22308000 </v>
    <v>       0.57012344       0.57832506       0.22308000 </v>
    <v>       0.07012344       0.07832506       0.55641333 </v>
    <v>       0.57012344       0.07832506       0.55641333 </v>
    <v>       0.07012344       0.57832506       0.55641333 </v>
    <v>       0.57012344       0.57832506       0.55641333 </v>
    <v>       0.07012344       0.07832506       0.88974666 </v>
    <v>       0.57012344       0.07832506       0.88974666 </v>
    <v>       0.07012344       0.57832506       0.88974666 </v>
    <v>       0.57012344       0.57832506       0.88974666 </v>
    <v>       0.00000000       0.00000000       0.05479365 </v>
    <v>       0.50000000       0.00000000       0.05479365 </v>
    <v>       0.00000000       0.50000000       0.05479365 </v>
    <v>       0.50000000       0.50000000       0.05479365 </v>
    <v>       0.00000000       0.00000000       0.38812698 </v>
    <v>       0.50000000       0.00000000       0.38812698 </v>
    <v>       0.00000000       0.50000000       0.38812698 </v>
    <v>       0.50000000       0.50000000       0.38812698 </v>
    <v>       0.00000000       0.00000000       0.72146032 </v>
    <v>       0.50000000       0.00000000       0.72146032 </v>
    <v>       0.00000000       0.50000000       0.72146032 </v>
    <v>       0.50000000       0.50000000       0.72146032 </v>
    <v>       0.25000000       0.00000000       0.22145206 </v>
    <v>       0.75000000       0.00000000       0.22145206 </v>
    <v>       0.25000000       0.50000000       0.22145206 </v>
    <v>       0.75000000       0.50000000       0.22145206 </v>
    <v>       0.25000000       0.00000000       0.55478539 </v>
    <v>       0.75000000       0.00000000       0.55478539 </v>
    <v>       0.25000000       0.50000000       0.55478539 </v>
    <v>       0.75000000       0.50000000       0.55478539 </v>
    <v>       0.25000000       0.00000000       0.88811873 </v>
    <v>       0.75000000       0.00000000       0.88811873 </v>
    <v>       0.25000000       0.50000000       0.88811873 </v>
    <v>       0.75000000       0.50000000       0.88811873 </v>
    <v>       0.00000000       0.25000000       0.16743769 </v>
    <v>       0.50000000       0.25000000       0.16743769 </v>
    <v>       0.00000000       0.75000000       0.16743769 </v>
    <v>       0.50000000       0.75000000       0.16743769 </v>
    <v>       0.00000000       0.25000000       0.50077102 </v>
    <v>       0.50000000       0.25000000       0.50077102 </v>
    <v>       0.00000000       0.75000000       0.50077102 </v>
    <v>       0.50000000       0.75000000       0.50077102 </v>
    <v>       0.00000000       0.25000000       0.83410435 </v>
    <v>       0.50000000       0.25000000       0.83410435 </v>
    <v>       0.00000000       0.75000000       0.83410435 </v>
    <v>       0.50000000       0.75000000       0.83410435 </v>
    <v>       0.25000000       0.25000000       0.00076332 </v>
    <v>       0.75000000       0.25000000       0.00076332 </v>
    <v>       0.25000000       0.75000000       0.00076332 </v>
    <v>       0.75000000       0.75000000       0.00076332 </v>
    <v>       0.25000000       0.25000000       0.33409665 </v>
    <v>       0.75000000       0.25000000       0.33409665 </v>
    <v>       0.25000000       0.75000000       0.33409665 </v>
    <v>       0.75000000       0.75000000       0.33409665 </v>
    <v>       0.25000000       0.25000000       0.66742999 </v>
    <v>       0.75000000       0.25000000       0.66742999 </v>
    <v>       0.25000000       0.75000000       0.66742999 </v>
    <v>       0.75000000       0.75000000       0.66742999 </v>
   </varray>
  </structure>
  <varray name="forces" >
   <v>      -0.00023354      -0.00057380       0.00081076 </v>
   <v>       0.00011397       0.00004069      -0.00005199 </v>
   <v>       0.00011820      -0.00057453       0.00010589 </v>
   <v>      -0.00000620       0.00004065      -0.00004616 </v>
   <v>      -0.00004012       0.00003818      -0.00002059 </v>
   <v>      -0.00002095       0.00006487      -0.00002848 </v>
   <v>      -0.00000290       0.00003835      -0.00004258 </v>
   <v>      -0.00002512       0.00006467      -0.00002590 </v>
   <v>      -0.00038132      -0.00025232      -0.00069416 </v>
   <v>       0.00004864       0.00004017      -0.00005155 </v>
   <v>       0.00007639      -0.00025225       0.00013928 </v>
   <v>      -0.00003815       0.00003932      -0.00002747 </v>
   <v>      -0.00007721      -0.00005221      -0.00006305 </v>
   <v>       0.00579937      -0.00141903       0.00592137 </v>
   <v>       0.00010526      -0.00011123      -0.00003019 </v>
   <v>       0.00000823      -0.00019689      -0.00006299 </v>
   <v>       0.00002483      -0.00003197      -0.00002145 </v>
   <v>       0.00005181      -0.00003615      -0.00000102 </v>
   <v>       0.00002494      -0.00009404      -0.00003474 </v>
   <v>       0.00000408      -0.00015720       0.00001426 </v>
   <v>      -0.00003885      -0.00004395      -0.00008291 </v>
   <v>       0.00051178       0.00022109      -0.00090550 </v>
   <v>       0.00003012      -0.00009507      -0.00003568 </v>
   <v>       0.00005176      -0.00039261      -0.00005913 </v>
   <v>       0.00042437       0.00131838       0.00075765 </v>
   <v>       0.00007726       0.00017881       0.00003711 </v>
   <v>      -0.00012027      -0.00003894       0.00006047 </v>
   <v>       0.00004010      -0.00000998       0.00001930 </v>
   <v>       0.00063477       0.00131571      -0.00068483 </v>
   <v>       0.00003281       0.00017888       0.00006427 </v>
   <v>      -0.00003343      -0.00003909       0.00005699 </v>
   <v>       0.00002304      -0.00000975       0.00007497 </v>
   <v>       0.00008345       0.00006116       0.00006305 </v>
   <v>       0.00000207       0.00006948       0.00004854 </v>
   <v>       0.00002372       0.00001218       0.00004908 </v>
   <v>       0.00003317       0.00000118       0.00004674 </v>
   <v>      -0.00007478      -0.00001254      -0.00001555 </v>
   <v>       0.00006415      -0.00012759      -0.00004862 </v>
   <v>      -0.00000437      -0.00013000       0.00010037 </v>
   <v>      -0.00043108      -0.00008421       0.00010389 </v>
   <v>      -0.00007987      -0.00012859       0.00010765 </v>
   <v>       0.00001031      -0.00001282       0.00007653 </v>
   <v>       0.00005630      -0.00008302      -0.00006608 </v>
   <v>      -0.00035620      -0.00013033      -0.00008837 </v>
   <v>      -0.00001969       0.00001147       0.00003704 </v>
   <v>      -0.00003913       0.00001135       0.00001993 </v>
   <v>      -0.00003099      -0.00002788       0.00006873 </v>
   <v>      -0.00013381      -0.00002767       0.00007737 </v>
   <v>       0.00005531       0.00029460      -0.00005440 </v>
   <v>       0.00099171       0.00029471      -0.00022064 </v>
   <v>       0.00001480      -0.00010817      -0.00000665 </v>
   <v>      -0.00007187      -0.00010867      -0.00000800 </v>
   <v>      -0.00000406       0.00003091       0.00003294 </v>
   <v>       0.00002480       0.00003133       0.00011389 </v>
   <v>       0.00000131      -0.00004012      -0.00005687 </v>
   <v>      -0.00004094      -0.00003997       0.00000993 </v>
   <v>      -0.00000198       0.00005054      -0.00000915 </v>
   <v>       0.00000859       0.00005053      -0.00010646 </v>
   <v>      -0.00001914      -0.00004863      -0.00000295 </v>
   <v>      -0.00005277      -0.00004907      -0.00002319 </v>
   <v>      -0.00087781      -0.00054551      -0.00019344 </v>
   <v>       0.00002719      -0.00000987      -0.00002432 </v>
   <v>       0.00012132      -0.00054826       0.00017695 </v>
   <v>      -0.00004524      -0.00000976      -0.00000666 </v>
   <v>      -0.00000706       0.00000147       0.00006887 </v>
   <v>       0.00003249      -0.00003101       0.00008072 </v>
   <v>       0.00002604       0.00000188      -0.00001341 </v>
   <v>      -0.00002546      -0.00003098      -0.00000900 </v>
   <v>      -0.00002535       0.00000084      -0.00006640 </v>
   <v>       0.00003921      -0.00002133      -0.00008184 </v>
   <v>      -0.00000288       0.00000068       0.00000206 </v>
   <v>      -0.00002628      -0.00002134      -0.00001141 </v>
   <v>      -0.01131639       0.02626041       0.00402221 </v>
   <v>      -0.00005090       0.00003901       0.00001558 </v>
   <v>      -0.00003292      -0.00019980       0.00004174 </v>
   <v>       0.00007228      -0.00003338       0.00001642 </v>
   <v>       0.00031738       0.00028294      -0.00018365 </v>
   <v>      -0.00003140       0.00003356      -0.00000492 </v>
   <v>      -0.00002976      -0.00009422       0.00004991 </v>
   <v>       0.00000553      -0.00001886       0.00002376 </v>
   <v>       0.00033970       0.00028280       0.00025572 </v>
   <v>      -0.00004448       0.00003343       0.00001438 </v>
   <v>      -0.00007580      -0.00009361      -0.00019677 </v>
   <v>       0.00001231      -0.00001885       0.00000780 </v>
   <v>      -0.00003273      -0.00003082       0.00003533 </v>
   <v>       0.00033590      -0.00182053       0.00089546 </v>
   <v>       0.00058813      -0.00034634       0.00004279 </v>
   <v>      -0.00589967      -0.00586158       0.00022963 </v>
   <v>      -0.00002179      -0.00001442       0.00002251 </v>
   <v>      -0.00005030       0.00002276       0.00002508 </v>
   <v>      -0.00000906      -0.00004995       0.00003370 </v>
   <v>      -0.00049569      -0.00049521      -0.00064227 </v>
   <v>      -0.00002350      -0.00001447       0.00001725 </v>
   <v>       0.00000612       0.00002220      -0.00005666 </v>
   <v>       0.00000188      -0.00004990       0.00003915 </v>
   <v>      -0.00055898      -0.00049411       0.00088134 </v>
   <v>      -0.00002497       0.00000962      -0.00006844 </v>
   <v>       0.00022495       0.00090824       0.00052981 </v>
   <v>      -0.00016891      -0.00006044      -0.00022227 </v>
   <v>      -0.00109254       0.00016082       0.00131875 </v>
   <v>      -0.00007689       0.00002889      -0.00012828 </v>
   <v>       0.00000334       0.00021570      -0.00019473 </v>
   <v>      -0.00012271      -0.00004196       0.00001432 </v>
   <v>      -0.00210059       0.00005366      -0.00384806 </v>
   <v>       0.00002655       0.00002379      -0.00009219 </v>
   <v>       0.00004008       0.00009305      -0.00017062 </v>
   <v>       0.00001163      -0.00000394      -0.00010454 </v>
   <v>      -0.00002594       0.00009115      -0.00015044 </v>
   <v>       0.00007805       0.00012649       0.00003506 </v>
   <v>      -0.00008915       0.00016863      -0.00004672 </v>
   <v>       0.00834182      -0.00145961       0.00014069 </v>
   <v>       0.00008285      -0.00014430       0.00013240 </v>
   <v>      -0.00000046       0.00004908       0.00002247 </v>
   <v>      -0.00001846       0.00001102      -0.00000938 </v>
   <v>      -0.00002596      -0.00001623      -0.00001661 </v>
   <v>       0.00026394      -0.00010021       0.00009481 </v>
   <v>       0.00006102      -0.00001933       0.00003416 </v>
   <v>      -0.00001258       0.00000181       0.00006279 </v>
   <v>      -0.00007937      -0.00006014       0.00003162 </v>
   <v>       0.00026831      -0.00008776      -0.00007668 </v>
   <v>       0.00007768       0.00001787      -0.00000612 </v>
   <v>       0.00609718      -0.01506017      -0.00898783 </v>
   <v>      -0.00001196      -0.00000609      -0.00002422 </v>
   <v>      -0.00015951      -0.00024584       0.00012524 </v>
   <v>      -0.00004838      -0.00002389      -0.00007815 </v>
   <v>       0.00008517      -0.00013552       0.00019862 </v>
   <v>      -0.00002881       0.00003567      -0.00002240 </v>
   <v>      -0.00002950       0.00036079      -0.00001785 </v>
   <v>      -0.00005464      -0.00000810       0.00003723 </v>
   <v>      -0.00001518      -0.00001707      -0.00002351 </v>
   <v>       0.00001383       0.00007619      -0.00004040 </v>
   <v>       0.00007167       0.00041281      -0.00020303 </v>
   <v>      -0.00003012      -0.00035223      -0.00020512 </v>
   <v>      -0.00031708       0.00000840       0.00026374 </v>
   <v>       0.00007988       0.00001601       0.00009264 </v>
   <v>       0.00018686       0.00007787       0.00007725 </v>
   <v>      -0.00042877      -0.00032937       0.00042777 </v>
   <v>      -0.00046275       0.00003758      -0.00011185 </v>
   <v>      -0.00014389       0.00018486       0.00008590 </v>
   <v>       0.00007588       0.00003055       0.00005501 </v>
   <v>      -0.00005546      -0.00006085       0.00005365 </v>
   <v>       0.00000151      -0.00006912       0.00006443 </v>
   <v>       0.00003381      -0.00000320       0.00003164 </v>
   <v>       0.00006381       0.00001805       0.00007113 </v>
  </varray>
  <varray name="stress" >
   <v>      -0.17419629      -0.01533825       0.00011908 </v>
   <v>      -0.01533805      -0.14101928       0.00445403 </v>
   <v>       0.00011904       0.00445406      -0.15651597 </v>
  </varray>
  <energy>
   <i name="e_fr_energy">   -505.12828134 </i>
   <i name="e_wo_entrp">   -505.12067208 </i>
   <i name="e_0_energy">     -0.01521852 </i>
  </energy>
  <time name="totalsc">19315.4119364.88</time>
  <eigenvalues>
   <array>
    <dimension dim="1">band</dimension>
    <dimension dim="2">kpoint</dimension>
    <dimension dim="3">spin</dimension>
    <field>eigene</field>
    <field>occ</field>
    <set>
     <set comment="spin 1">
      <set comment="kpoint 1">
       <r>   -7.4639    1.0000 </r>
       <r>   -7.2297    1.0000 </r>
       <r>   -7.2294    1.0000 </r>
       <r>   -7.2158    1.0000 </r>
       <r>   -7.2156    1.0000 </r>
       <r>   -7.1646    1.0000 </r>
       <r>   -7.1640    1.0000 </r>
       <r>   -7.0700    1.0000 </r>
       <r>   -7.0695    1.0000 </r>
       <r>   -7.0693    1.0000 </r>
       <r>   -7.0693    1.0000 </r>
       <r>   -7.0097    1.0000 </r>
       <r>   -7.0091    1.0000 </r>
       <r>   -7.0088    1.0000 </r>
       <r>   -7.0087    1.0000 </r>
       <r>   -6.9944    1.0000 </r>
       <r>   -6.9939    1.0000 </r>
       <r>   -6.9936    1.0000 </r>
       <r>   -6.9934    1.0000 </r>
       <r>   -6.9476    1.0000 </r>
       <r>   -6.9353    1.0000 </r>
       <r>   -6.9350    1.0000 </r>
       <r>   -6.9202    1.0000 </r>
       <r>   -6.9191    1.0000 </r>
       <r>   -6.9190    1.0000 </r>
       <r>   -6.9190    1.0000 </r>
       <r>   -6.9190    1.0000 </r>
       <r>   -6.9188    1.0000 </r>
       <r>   -6.9187    1.0000 </r>
       <r>   -6.9185    1.0000 </r>
       <r>   -6.8373    1.0000 </r>
       <r>   -6.8366    1.0000 </r>
       <r>   -6.8364    1.0000 </r>
       <r>   -6.8363    1.0000 </r>
       <r>   -6.8238    1.0000 </r>
       <r>   -6.8183    1.0000 </r>
       <r>   -6.8177    1.0000 </r>
       <r>   -6.7728    1.0000 </r>
       <r>   -6.7725    1.0000 </r>
       <r>   -6.7673    1.0000 </r>
       <r>   -6.7669    1.0000 </r>
       <r>   -6.7667    1.0000 </r>
       <r>   -6.7666    1.0000 </r>
       <r>   -6.7548    1.0000 </r>
       <r>   -6.7546    1.0000 </r>
       <r>   -6.7401    1.0000 </r>
       <r>   -6.7398    1.0000 </r>
       <r>   -6.6844    1.0000 </r>
       <r>   -0.3462    1.0000 </r>
       <r>    0.0938    1.0000 </r>
       <r>    0.0941    1.0000 </r>
       <r>    0.0943    1.0000 </r>
       <r>    0.0943    1.0000 </r>
       <r>    0.0943    1.0000 </r>
       <r>    0.0944    1.0000 </r>
       <r>    0.0945    1.0000 </r>
       <r>    0.0946    1.0000 </r>
       <r>    0.1077    1.0000 </r>
       <r>    0.1078    1.0000 </r>
       <r>    0.1079    1.0000 </r>
       <r>    0.1081    1.0000 </r>
       <r>    0.1520    1.0000 </r>
       <r>    0.1522    1.0000 </r>
       <r>    0.1523    1.0000 </r>
       <r>    0.1524    1.0000 </r>
       <r>    0.1579    1.0000 </r>
       <r>    0.1582    1.0000 </r>
       <r>    0.1595    1.0000 </r>
       <r>    0.1597    1.0000 </r>
       <r>    0.2007    1.0000 </r>
       <r>    0.2009    1.0000 </r>
       <r>    0.2010    1.0000 </r>
       <r>    0.2012    1.0000 </r>
       <r>    0.2367    1.0000 </r>
       <r>    0.2368    1.0000 </r>
       <r>    0.2566    1.0000 </r>
       <r>    0.2568    1.0000 </r>
       <r>    0.2820    1.0000 </r>
       <r>    0.3008    1.0000 </r>
       <r>    0.3010    1.0000 </r>
       <r>    0.3229    1.0000 </r>
       <r>    0.4471    1.0000 </r>
       <r>    0.4473    1.0000 </r>
       <r>    0.4506    1.0000 </r>
       <r>    0.4510    1.0000 </r>
       <r>    0.4571    1.0000 </r>
       <r>    0.4573    1.0000 </r>
       <r>    0.4655    1.0000 </r>
       <r>    0.4657    1.0000 </r>
       <r>    0.4657    1.0000 </r>
       <r>    0.4660    1.0000 </r>
       <r>    0.4699    1.0000 </r>
       <r>    0.4701    1.0000 </r>
       <r>    0.4702    1.0000 </r>
       <r>    0.4702    1.0000 </r>
       <r>    0.5113    1.0000 </r>
       <r>    0.5115    1.0000 </r>
       <r>    0.5258    1.0000 </r>
       <r>    0.5264    1.0000 </r>
       <r>    0.5264    1.0000 </r>
       <r>    0.5264    1.0000 </r>
       <r>    0.5972    1.0000 </r>
       <r>    0.6017    1.0000 </r>
       <r>    0.6547    1.0000 </r>
       <r>    0.6549    1.0000 </r>
       <r>    0.6551    1.0000 </r>
       <r>    0.6553    1.0000 </r>
       <r>    0.6615    1.0000 </r>
       <r>    0.6618    1.0000 </r>
       <r>    0.6877    1.0000 </r>
       <r>    0.6879    1.0000 </r>
       <r>    0.7016    1.0000 </r>
       <r>    0.7018    1.0000 </r>
       <r>    0.7019    1.0000 </r>
       <r>    0.7022    1.0000 </r>
       <r>    0.7207    1.0000 </r>
       <r>    0.7208    1.0000 </r>
       <r>    0.7410    1.0000 </r>
       <r>    0.7413    1.0000 </r>
       <r>    0.7485    1.0000 </r>
       <r>    0.8023    1.0000 </r>
       <r>    0.8142    1.0000 </r>
       <r>    0.8143    1.0000 </r>
       <r>    0.8144    1.0000 </r>
       <r>    0.8146    1.0000 </r>
       <r>    0.8301    1.0000 </r>
       <r>    0.8303    1.0000 </r>
       <r>    0.8305    1.0000 </r>
       <r>    0.8310    1.0000 </r>
       <r>    0.8516    1.0000 </r>
       <r>    0.8519    1.0000 </r>
       <r>    0.8520    1.0000 </r>
       <r>    0.8521    1.0000 </r>
       <r>    0.8521    1.0000 </r>
       <r>    0.8522    1.0000 </r>
       <r>    0.8522    1.0000 </r>
       <r>    0.8523    1.0000 </r>
       <r>    0.8952    1.0000 </r>
       <r>    0.8977    1.0000 </r>
       <r>    0.8979    1.0000 </r>
       <r>    0.8991    1.0000 </r>
       <r>    0.8994    1.0000 </r>
       <r>    0.8995    1.0000 </r>
       <r>    0.8997    1.0000 </r>
       <r>    0.9205    1.0000 </r>
       <r>    0.9457    1.0000 </r>
       <r>    0.9460    1.0000 </r>
       <r>    1.0705    1.0000 </r>
       <r>    1.0709    1.0000 </r>
       <r>    1.0710    1.0000 </r>
       <r>    1.0710    1.0000 </r>
       <r>    1.0846    1.0000 </r>
       <r>    1.0847    1.0000 </r>
       <r>    1.0848    1.0000 </r>
       <r>    1.0848    1.0000 </r>
       <r>    1.0850    1.0000 </r>
       <r>    1.0852    1.0000 </r>
       <r>    1.1009    1.0000 </r>
       <r>    1.1011    1.0000 </r>
       <r>    1.1455    1.0000 </r>
       <r>    1.1459    1.0000 </r>
       <r>    1.1460    1.0000 </r>
       <r>    1.1461    1.0000 </r>
       <r>    1.1618    1.0000 </r>
       <r>    1.1619    1.0000 </r>
       <r>    1.1620    1.0000 </r>
       <r>    1.1622    1.0000 </r>
       <r>    1.1757    1.0000 </r>
       <r>    1.1759    1.0000 </r>
       <r>    1.1996    1.0000 </r>
       <r>    1.2240    1.0000 </r>
       <r>    1.2243    1.0000 </r>
       <r>    1.2293    1.0000 </r>
       <r>    1.2299    1.0000 </r>
       <r>    1.2299    1.0000 </r>
       <r>    1.2300    1.0000 </r>
       <r>    1.2300    1.0000 </r>
       <r>    1.2300    1.0000 </r>
       <r>    1.2301    1.0000 </r>
       <r>    1.2302    1.0000 </r>
       <r>    1.2370    1.0000 </r>
       <r>    1.2372    1.0000 </r>
       <r>    1.3413    1.0000 </r>
       <r>    1.3415    1.0000 </r>
       <r>    1.3415    1.0000 </r>
       <r>    1.3416    1.0000 </r>
       <r>    1.3652    1.0000 </r>
       <r>    1.3663    1.0000 </r>
       <r>    1.3665    1.0000 </r>
       <r>    1.3671    1.0000 </r>
       <r>    1.3672    1.0000 </r>
       <r>    1.3733    1.0000 </r>
       <r>    1.3734    1.0000 </r>
       <r>    1.3735    1.0000 </r>
       <r>    1.3738    1.0000 </r>
[...]
       <r>    -1.7770     0.0000    96.0000 </r>
       <r>    -1.7053     0.0000    96.0000 </r>
       <r>    -1.6337     0.0000    96.0000 </r>
       <r>    -1.5620     0.0000    96.0000 </r>
       <r>    -1.4903     0.0000    96.0000 </r>
       <r>    -1.4187     0.0000    96.0000 </r>
       <r>    -1.3470     0.0000    96.0000 </r>
       <r>    -1.2754     0.0000    96.0000 </r>
       <r>    -1.2037     0.0000    96.0000 </r>
       <r>    -1.1321     0.0000    96.0000 </r>
       <r>    -1.0604     0.0000    96.0000 </r>
       <r>    -0.9888     0.0000    96.0000 </r>
       <r>    -0.9171     0.0000    96.0000 </r>
       <r>    -0.8454     0.0000    96.0000 </r>
       <r>    -0.7738     0.0000    96.0000 </r>
       <r>    -0.7021     0.0000    96.0000 </r>
       <r>    -0.6305     0.0000    96.0000 </r>
       <r>    -0.5588     0.0000    96.0000 </r>
       <r>    -0.4872     0.0001    96.0000 </r>
       <r>    -0.4155     0.0868    96.0062 </r>
       <r>    -0.3438     1.7489    96.1315 </r>
       <r>    -0.2722     1.8784    96.2662 </r>
       <r>    -0.2005     8.2331    96.8561 </r>
       <r>    -0.1289    15.3874    97.9587 </r>
       <r>    -0.0572    24.0805    99.6842 </r>
       <r>     0.0144    51.0105   103.3395 </r>
       <r>     0.0861   101.8409   110.6370 </r>
       <r>     0.1578   188.5113   124.1451 </r>
       <r>     0.2294   205.2358   138.8515 </r>
       <r>     0.3011   274.2889   158.5061 </r>
       <r>     0.3727   193.9714   172.4054 </r>
       <r>     0.4444   125.1510   181.3732 </r>
       <r>     0.5160   140.7862   191.4615 </r>
       <r>     0.5877   124.1744   200.3594 </r>
       <r>     0.6593   165.8127   212.2409 </r>
       <r>     0.7310   245.0767   229.8022 </r>
       <r>     0.8027   229.1506   246.2223 </r>
       <r>     0.8743   291.0706   267.0794 </r>
       <r>     0.9460   285.5629   287.5418 </r>
       <r>     1.0176   146.9884   298.0745 </r>
       <r>     1.0893   183.6211   311.2321 </r>
       <r>     1.1609   226.6503   327.4731 </r>
       <r>     1.2326   229.2929   343.9034 </r>
       <r>     1.3043   297.9578   365.2540 </r>
       <r>     1.3759   306.2759   387.2006 </r>
       <r>     1.4476   391.3715   415.2449 </r>
       <r>     1.5192   355.3340   440.7069 </r>
       <r>     1.5909   372.9045   467.4279 </r>
       <r>     1.6625   365.3862   493.6101 </r>
       <r>     1.7342   391.3489   521.6528 </r>
       <r>     1.8058   372.6046   548.3523 </r>
       <r>     1.8775   358.0651   574.0100 </r>
       <r>     1.9492   388.9423   601.8802 </r>
       <r>     2.0208   414.6546   631.5928 </r>
       <r>     2.0925   378.5888   658.7211 </r>
       <r>     2.1641   361.0261   684.5910 </r>
       <r>     2.2358   374.9946   711.4617 </r>
       <r>     2.3074   397.2026   739.9239 </r>
       <r>     2.3791   338.3395   764.1681 </r>
       <r>     2.4508   296.4133   785.4080 </r>
       <r>     2.5224   339.1547   809.7106 </r>
       <r>     2.5941   354.8438   835.1374 </r>
       <r>     2.6657   408.6300   864.4184 </r>
       <r>     2.7374   374.3360   891.2420 </r>
       <r>     2.8090   379.6170   918.4439 </r>
       <r>     2.8807   431.8610   949.3896 </r>
       <r>     2.9524   499.0301   985.1483 </r>
       <r>     3.0240   496.9773  1020.7599 </r>
       <r>     3.0957   369.2945  1047.2222 </r>
       <r>     3.1673   233.7433  1063.9714 </r>
       <r>     3.2390   205.2780  1078.6809 </r>
       <r>     3.3106   170.6622  1090.9099 </r>
       <r>     3.3823   138.2228  1100.8145 </r>
       <r>     3.4539   119.4292  1109.3724 </r>
       <r>     3.5256   157.4414  1120.6540 </r>
       <r>     3.5973   163.2107  1132.3491 </r>
       <r>     3.6689   101.0287  1139.5885 </r>
       <r>     3.7406    96.7684  1146.5226 </r>
       <r>     3.8122    65.0193  1151.1816 </r>
       <r>     3.8839    72.3362  1156.3650 </r>
       <r>     3.9555    73.2887  1161.6166 </r>
       <r>     4.0272    65.3398  1166.2986 </r>
       <r>     4.0989    92.3047  1172.9128 </r>
       <r>     4.1705   103.5317  1180.3315 </r>
       <r>     4.2422   114.2194  1188.5161 </r>
       <r>     4.3138    75.0662  1193.8950 </r>
       <r>     4.3855    72.9296  1199.1209 </r>
       <r>     4.4571    65.3887  1203.8064 </r>
       <r>     4.5288    92.1717  1210.4111 </r>
       <r>     4.6004    93.3445  1217.0999 </r>
       <r>     4.6721   102.5235  1224.4463 </r>
       <r>     4.7438   139.7617  1234.4612 </r>
       <r>     4.8154   137.8269  1244.3373 </r>
       <r>     4.8871    72.4059  1249.5257 </r>
       <r>     4.9587    53.5470  1253.3627 </r>
       <r>     5.0304    55.0749  1257.3092 </r>
       <r>     5.1020    87.2701  1263.5626 </r>
       <r>     5.1737   144.2261  1273.8973 </r>
       <r>     5.2454   108.6285  1281.6813 </r>
       <r>     5.3170    63.0374  1286.1983 </r>
       <r>     5.3887    59.5977  1290.4689 </r>
       <r>     5.4603    69.1474  1295.4237 </r>
       <r>     5.5320    72.5322  1300.6211 </r>
       <r>     5.6036    76.5747  1306.1082 </r>
       <r>     5.6753   110.6426  1314.0364 </r>
       <r>     5.7470   131.9914  1323.4945 </r>
       <r>     5.8186    72.6838  1328.7027 </r>
       <r>     5.8903    64.4591  1333.3216 </r>
       <r>     5.9619    58.3852  1337.5053 </r>
       <r>     6.0336    30.3942  1339.6832 </r>
       <r>     6.1052    18.9091  1341.0382 </r>
       <r>     6.1769    21.5588  1342.5830 </r>
       <r>     6.2485    16.8484  1343.7903 </r>
       <r>     6.3202     8.9525  1344.4318 </r>
       <r>     6.3919     0.9465  1344.4996 </r>
       <r>     6.4635     0.1200  1344.5082 </r>
       <r>     6.5352     1.8912  1344.6438 </r>
       <r>     6.6068     1.7839  1344.7716 </r>
       <r>     6.6785     5.3843  1345.1574 </r>
       <r>     6.7501    22.9565  1346.8024 </r>
       <r>     6.8218    25.9949  1348.6651 </r>
       <r>     6.8935    11.1762  1349.4659 </r>
       <r>     6.9651     6.2998  1349.9174 </r>
       <r>     7.0368     8.9633  1350.5596 </r>
       <r>     7.1084     4.6942  1350.8960 </r>
       <r>     7.1801    21.5566  1352.4407 </r>
       <r>     7.2517    23.9604  1354.1576 </r>
       <r>     7.3234    28.0359  1356.1666 </r>
       <r>     7.3950    31.4508  1358.4202 </r>
       <r>     7.4667    30.2927  1360.5909 </r>
       <r>     7.5384    60.8279  1364.9496 </r>
       <r>     7.6100    71.3556  1370.0627 </r>
       <r>     7.6817    26.6921  1371.9753 </r>
       <r>     7.7533    54.8038  1375.9024 </r>
       <r>     7.8250    69.6557  1380.8936 </r>
       <r>     7.8966    73.2290  1386.1410 </r>
       <r>     7.9683    75.5126  1391.5519 </r>
       <r>     8.0400    65.9887  1396.2804 </r>
       <r>     8.1116    34.3808  1398.7441 </r>
       <r>     8.1833    18.5966  1400.0766 </r>
       <r>     8.2549     8.3226  1400.6730 </r>
       <r>     8.3266    10.4333  1401.4206 </r>
       <r>     8.3982    50.8802  1405.0665 </r>
       <r>     8.4699    34.1128  1407.5109 </r>
       <r>     8.5416    32.2668  1409.8230 </r>
       <r>     8.6132    95.1545  1416.6414 </r>
       <r>     8.6849   104.4191  1424.1238 </r>
       <r>     8.7565    58.5901  1428.3221 </r>
       <r>     8.8282    51.2839  1431.9969 </r>
       <r>     8.8998    33.4623  1434.3947 </r>
       <r>     8.9715    45.8285  1437.6786 </r>
       <r>     9.0431    30.2400  1439.8455 </r>
       <r>     9.1148    22.2047  1441.4366 </r>
       <r>     9.1865    10.2781  1442.1731 </r>
       <r>     9.2581    16.7798  1443.3755 </r>
       <r>     9.3298    53.6924  1447.2229 </r>
       <r>     9.4014    49.5787  1450.7755 </r>
       <r>     9.4731    54.3106  1454.6672 </r>
       <r>     9.5447    38.1325  1457.3997 </r>
       <r>     9.6164    50.8817  1461.0457 </r>
       <r>     9.6881    50.0882  1464.6348 </r>
       <r>     9.7597    47.7120  1468.0537 </r>
       <r>     9.8314    52.5875  1471.8219 </r>
       <r>     9.9030    76.2732  1477.2874 </r>
       <r>     9.9747    55.9043  1481.2933 </r>
       <r>    10.0463   108.4621  1489.0653 </r>
       <r>    10.1180   118.7346  1497.5734 </r>
       <r>    10.1896    42.7012  1500.6332 </r>
       <r>    10.2613    28.6348  1502.6851 </r>
       <r>    10.3330    48.8492  1506.1854 </r>
       <r>    10.4046    56.3693  1510.2247 </r>
       <r>    10.4763    90.3884  1516.7016 </r>
       <r>    10.5479   110.0587  1524.5880 </r>
       <r>    10.6196   111.8037  1532.5994 </r>
       <r>    10.6912    94.1015  1539.3424 </r>
       <r>    10.7629    78.4266  1544.9622 </r>
       <r>    10.8346   107.4946  1552.6649 </r>
       <r>    10.9062    89.7080  1559.0930 </r>
       <r>    10.9779    64.9007  1563.7436 </r>
       <r>    11.0495    34.8074  1566.2377 </r>
       <r>    11.1212    55.6107  1570.2226 </r>
       <r>    11.1928    51.6171  1573.9213 </r>
       <r>    11.2645    44.8724  1577.1367 </r>
       <r>    11.3362    83.2019  1583.0986 </r>
       <r>    11.4078    53.3432  1586.9210 </r>
       <r>    11.4795    55.1224  1590.8709 </r>
       <r>    11.5511    88.8194  1597.2354 </r>
       <r>    11.6228    68.0447  1602.1112 </r>
       <r>    11.6944    45.9630  1605.4048 </r>
       <r>    11.7661    12.0414  1606.2676 </r>
       <r>    11.8377    14.9457  1607.3386 </r>
       <r>    11.9094    36.2920  1609.9391 </r>
       <r>    11.9811    20.6869  1611.4215 </r>
       <r>    12.0527     3.0122  1611.6373 </r>
       <r>    12.1244     4.5092  1611.9604 </r>
       <r>    12.1960     0.5500  1611.9998 </r>
       <r>    12.2677     0.0022  1612.0000 </r>
       <r>    12.3393     0.0000  1612.0000 </r>
       <r>    12.4110     0.0000  1612.0000 </r>
       <r>    12.4827     0.0000  1612.0000 </r>
       <r>    12.5543     0.0000  1612.0000 </r>
       <r>    12.6260     0.0000  1612.0000 </r>
       <r>    12.6976     0.0000  1612.0000 </r>
       <r>    12.7693     0.0000  1612.0000 </r>
       <r>    12.8409     0.0000  1612.0000 </r>
       <r>    12.9126     0.0000  1612.0000 </r>
       <r>    12.9842     0.0000  1612.0000 </r>
       <r>    13.0559     0.0000  1612.0000 </r>
      </set>
     </set>
    </array>
   </total>
  </dos>
 </calculation>
 <structure name="finalpos" >
  <crystal>
   <varray name="basis" >
    <v>      14.01039598       0.00139138       0.00000000 </v>
    <v>      -0.00150196      13.76691092       0.00000000 </v>
    <v>       0.00000000       0.00000000      14.55019386 </v>
   </varray>
   <i name="volume">   2806.43958022 </i>
   <varray name="rec_basis" >
    <v>       0.07137557       0.00000779       0.00000000 </v>
    <v>      -0.00000721       0.07263794       0.00000000 </v>
    <v>       0.00000000       0.00000000       0.06872761 </v>
   </varray>
  </crystal>
  <varray name="positions" >
   <v>       0.42987898       0.17167077       0.33247735 </v>
   <v>       0.92987898       0.17167077       0.33247735 </v>
   <v>       0.42987898       0.67167077       0.33247735 </v>
   <v>       0.92987898       0.67167077       0.33247735 </v>
   <v>       0.42987898       0.17167077       0.66581068 </v>
   <v>       0.92987898       0.17167077       0.66581068 </v>
   <v>       0.42987898       0.67167077       0.66581068 </v>
   <v>       0.92987898       0.67167077       0.66581068 </v>
   <v>       0.42987898       0.17167077       0.99914401 </v>
   <v>       0.92987898       0.17167077       0.99914401 </v>
   <v>       0.42987898       0.67167077       0.99914401 </v>
   <v>       0.92987898       0.67167077       0.99914401 </v>
   <v>       0.07012102       0.32832923       0.33247735 </v>
   <v>       0.57012102       0.32832923       0.33247735 </v>
   <v>       0.07012102       0.82832923       0.33247735 </v>
   <v>       0.57012102       0.82832923       0.33247735 </v>
   <v>       0.07012102       0.32832923       0.66581068 </v>
   <v>       0.57012102       0.32832923       0.66581068 </v>
   <v>       0.07012102       0.82832923       0.66581068 </v>
   <v>       0.57012102       0.82832923       0.66581068 </v>
   <v>       0.07012102       0.32832923       0.99914401 </v>
   <v>       0.57012102       0.32832923       0.99914401 </v>
   <v>       0.07012102       0.82832923       0.99914401 </v>
   <v>       0.57012102       0.82832923       0.99914401 </v>
   <v>       0.32012053       0.42167367       0.05641075 </v>
   <v>       0.82012053       0.42167367       0.05641075 </v>
   <v>       0.32012053       0.92167367       0.05641075 </v>
   <v>       0.82012053       0.92167367       0.05641075 </v>
   <v>       0.32012053       0.42167367       0.38974408 </v>
   <v>       0.82012053       0.42167367       0.38974408 </v>
   <v>       0.32012053       0.92167367       0.38974408 </v>
   <v>       0.82012053       0.92167367       0.38974408 </v>
   <v>       0.32012053       0.42167367       0.72307741 </v>
   <v>       0.82012053       0.42167367       0.72307741 </v>
   <v>       0.32012053       0.92167367       0.72307741 </v>
   <v>       0.82012053       0.92167367       0.72307741 </v>
   <v>       0.17987947       0.07832633       0.05641075 </v>
   <v>       0.67987947       0.07832633       0.05641075 </v>
   <v>       0.17987947       0.57832633       0.05641075 </v>
   <v>       0.67987947       0.57832633       0.05641075 </v>
   <v>       0.17987947       0.07832633       0.38974408 </v>
   <v>       0.67987947       0.07832633       0.38974408 </v>
   <v>       0.17987947       0.57832633       0.38974408 </v>
   <v>       0.67987947       0.57832633       0.38974408 </v>
   <v>       0.17987947       0.07832633       0.72307741 </v>
   <v>       0.67987947       0.07832633       0.72307741 </v>
   <v>       0.17987947       0.57832633       0.72307741 </v>
   <v>       0.67987947       0.57832633       0.72307741 </v>
   <v>       0.17987776       0.32832369       0.16580856 </v>
   <v>       0.67987776       0.32832369       0.16580856 </v>
   <v>       0.17987776       0.82832369       0.16580856 </v>
   <v>       0.67987776       0.82832369       0.16580856 </v>
   <v>       0.17987776       0.32832369       0.49914189 </v>
   <v>       0.67987776       0.32832369       0.49914189 </v>
   <v>       0.17987776       0.82832369       0.49914189 </v>
   <v>       0.67987776       0.82832369       0.49914189 </v>
   <v>       0.17987776       0.32832369       0.83247522 </v>
   <v>       0.67987776       0.32832369       0.83247522 </v>
   <v>       0.17987776       0.82832369       0.83247522 </v>
   <v>       0.67987776       0.82832369       0.83247522 </v>
   <v>       0.32012224       0.17167631       0.16580856 </v>
   <v>       0.82012224       0.17167631       0.16580856 </v>
   <v>       0.32012224       0.67167631       0.16580856 </v>
   <v>       0.82012224       0.67167631       0.16580856 </v>
   <v>       0.32012224       0.17167631       0.49914189 </v>
   <v>       0.82012224       0.17167631       0.49914189 </v>
   <v>       0.32012224       0.67167631       0.49914189 </v>
   <v>       0.82012224       0.67167631       0.49914189 </v>
   <v>       0.32012224       0.17167631       0.83247522 </v>
   <v>       0.82012224       0.17167631       0.83247522 </v>
   <v>       0.32012224       0.67167631       0.83247522 </v>
   <v>       0.82012224       0.67167631       0.83247522 </v>
   <v>       0.42987656       0.42094857       0.22308000 </v>
   <v>       0.92987656       0.42167494       0.22308000 </v>
   <v>       0.42987656       0.92167494       0.22308000 </v>
   <v>       0.92987656       0.92167494       0.22308000 </v>
   <v>       0.42987656       0.42167494       0.55641333 </v>
   <v>       0.92987656       0.42167494       0.55641333 </v>
   <v>       0.42987656       0.92167494       0.55641333 </v>
   <v>       0.92987656       0.92167494       0.55641333 </v>
   <v>       0.42987656       0.42167494       0.88974666 </v>
   <v>       0.92987656       0.42167494       0.88974666 </v>
   <v>       0.42987656       0.92167494       0.88974666 </v>
   <v>       0.92987656       0.92167494       0.88974666 </v>
   <v>       0.07012344       0.07832506       0.22308000 </v>
   <v>       0.57012344       0.07832506       0.22308000 </v>
   <v>       0.07012344       0.57832506       0.22308000 </v>
   <v>       0.57012344       0.57832506       0.22308000 </v>
   <v>       0.07012344       0.07832506       0.55641333 </v>
   <v>       0.57012344       0.07832506       0.55641333 </v>
   <v>       0.07012344       0.57832506       0.55641333 </v>
   <v>       0.57012344       0.57832506       0.55641333 </v>
   <v>       0.07012344       0.07832506       0.88974666 </v>
   <v>       0.57012344       0.07832506       0.88974666 </v>
   <v>       0.07012344       0.57832506       0.88974666 </v>
   <v>       0.57012344       0.57832506       0.88974666 </v>
   <v>       0.00000000       0.00000000       0.05479365 </v>
   <v>       0.50000000       0.00000000       0.05479365 </v>
   <v>       0.00000000       0.50000000       0.05479365 </v>
   <v>       0.50000000       0.50000000       0.05479365 </v>
   <v>       0.00000000       0.00000000       0.38812698 </v>
   <v>       0.50000000       0.00000000       0.38812698 </v>
   <v>       0.00000000       0.50000000       0.38812698 </v>
   <v>       0.50000000       0.50000000       0.38812698 </v>
   <v>       0.00000000       0.00000000       0.72146032 </v>
   <v>       0.50000000       0.00000000       0.72146032 </v>
   <v>       0.00000000       0.50000000       0.72146032 </v>
   <v>       0.50000000       0.50000000       0.72146032 </v>
   <v>       0.25000000       0.00000000       0.22145206 </v>
   <v>       0.75000000       0.00000000       0.22145206 </v>
   <v>       0.25000000       0.50000000       0.22145206 </v>
   <v>       0.75000000       0.50000000       0.22145206 </v>
   <v>       0.25000000       0.00000000       0.55478539 </v>
   <v>       0.75000000       0.00000000       0.55478539 </v>
   <v>       0.25000000       0.50000000       0.55478539 </v>
   <v>       0.75000000       0.50000000       0.55478539 </v>
   <v>       0.25000000       0.00000000       0.88811873 </v>
   <v>       0.75000000       0.00000000       0.88811873 </v>
   <v>       0.25000000       0.50000000       0.88811873 </v>
   <v>       0.75000000       0.50000000       0.88811873 </v>
   <v>       0.00000000       0.25000000       0.16743769 </v>
   <v>       0.50000000       0.25000000       0.16743769 </v>
   <v>       0.00000000       0.75000000       0.16743769 </v>
   <v>       0.50000000       0.75000000       0.16743769 </v>
   <v>       0.00000000       0.25000000       0.50077102 </v>
   <v>       0.50000000       0.25000000       0.50077102 </v>
   <v>       0.00000000       0.75000000       0.50077102 </v>
   <v>       0.50000000       0.75000000       0.50077102 </v>
   <v>       0.00000000       0.25000000       0.83410435 </v>
   <v>       0.50000000       0.25000000       0.83410435 </v>
   <v>       0.00000000       0.75000000       0.83410435 </v>
   <v>       0.50000000       0.75000000       0.83410435 </v>
   <v>       0.25000000       0.25000000       0.00076332 </v>
   <v>       0.75000000       0.25000000       0.00076332 </v>
   <v>       0.25000000       0.75000000       0.00076332 </v>
   <v>       0.75000000       0.75000000       0.00076332 </v>
   <v>       0.25000000       0.25000000       0.33409665 </v>
   <v>       0.75000000       0.25000000       0.33409665 </v>
   <v>       0.25000000       0.75000000       0.33409665 </v>
   <v>       0.75000000       0.75000000       0.33409665 </v>
   <v>       0.25000000       0.25000000       0.66742999 </v>
   <v>       0.75000000       0.25000000       0.66742999 </v>
   <v>       0.25000000       0.75000000       0.66742999 </v>
   <v>       0.75000000       0.75000000       0.66742999 </v>
  </varray>
 </structure>
</modeling>
