 vasp.5.4.4.18Apr17-6-g9f103f2a35 (build Jul 30 2020 14:31:59) complex          
  
 executed on             LinuxIFC date 2021.02.04  07:33:17
 running on   20 total cores
 distrk:  each k-point on   10 cores,    2 groups
 distr:  one band on NCORES_PER_BAND=  10 cores,    1 groups


--------------------------------------------------------------------------------------------------------


 INCAR:
 POTCAR:    PAW_PBE Ag 02Apr2005                  
 POTCAR:    PAW_PBE Se 06Sep2000                  

 ----------------------------------------------------------------------------- 
|                                                                             |
|           W    W    AA    RRRRR   N    N  II  N    N   GGGG   !!!           |
|           W    W   A  A   R    R  NN   N  II  NN   N  G    G  !!!           |
|           W    W  A    A  R    R  N N  N  II  N N  N  G       !!!           |
|           W WW W  AAAAAA  RRRRR   N  N N  II  N  N N  G  GGG   !            |
|           WW  WW  A    A  R   R   N   NN  II  N   NN  G    G                |
|           W    W  A    A  R    R  N    N  II  N    N   GGGG   !!!           |
|                                                                             |
|      For optimal performance we recommend to set                            |
|        NCORE= 4 - approx SQRT( number of cores)                             |
|      NCORE specifies how many cores store one orbital (NPAR=cpu/NCORE).     |
|      This setting can  greatly improve the performance of VASP for DFT.     |
|      The default,   NCORE=1            might be grossly inefficient         |
|      on modern multi-core architectures or massively parallel machines.     |
|      Do your own testing !!!!                                               |
|      Unfortunately you need to use the default for GW and RPA calculations. |
|      (for HF NCORE is supported but not extensively tested yet)             |
|                                                                             |
 ----------------------------------------------------------------------------- 


 ----------------------------------------------------------------------------- 
|                                                                             |
|           W    W    AA    RRRRR   N    N  II  N    N   GGGG   !!!           |
|           W    W   A  A   R    R  NN   N  II  NN   N  G    G  !!!           |
|           W    W  A    A  R    R  N N  N  II  N N  N  G       !!!           |
|           W WW W  AAAAAA  RRRRR   N  N N  II  N  N N  G  GGG   !            |
|           WW  WW  A    A  R   R   N   NN  II  N   NN  G    G                |
|           W    W  A    A  R    R  N    N  II  N    N   GGGG   !!!           |
|                                                                             |
|      You have enabled k-point parallelism (KPAR>1).                         |
|      This developmental code was originally  written by Paul Kent at ORNL,  |
|      and carefully double checked in Vienna.                                |
|      GW as well as linear response parallelism added by Martijn Marsman     |
|      and Georg Kresse.                                                      |
|      Carefully verify results versus KPAR=1.                                |
|      Report problems to Paul Kent and Vienna.                               |
|                                                                             |
 ----------------------------------------------------------------------------- 

 POTCAR:    PAW_PBE Ag 02Apr2005                  
   VRHFIN =Ag : s1 d10                                                          
   LEXCH  = PE                                                                  
   EATOM  =  1037.2675 eV,   76.2370 Ry                                         
                                                                                
   TITEL  = PAW_PBE Ag 02Apr2005                                                
   LULTRA =        F    use ultrasoft PP ?                                      
   IUNSCR =        1    unscreen: 0-lin 1-nonlin 2-no                           
   RPACOR =    2.000    partial core radius                                     
   POMASS =  107.868; ZVAL   =   11.000    mass and valenz                      
   RCORE  =    2.500    outmost cutoff radius                                   
   RWIGS  =    2.840; RWIGS  =    1.503    wigner-seitz radius (au A)           
   ENMAX  =  249.844; ENMIN  =  187.383 eV                                      
   ICORE  =        3    local potential                                         
   LCOR   =        T    correct aug charges                                     
   LPAW   =        T    paw PP                                                  
   EAUG   =  412.496                                                            
   DEXC   =    0.000                                                            
   RMAX   =    2.560    core radius for proj-oper                               
   RAUG   =    1.300    factor for augmentation sphere                          
   RDEP   =    2.576    radius for radial grids                                 
   RDEPT  =    2.072    core radius for aug-charge                              
                                                                                
   Atomic configuration                                                         
   12 entries                                                                   
     n  l   j            E        occ.                                          
     1  0  0.50    -25324.9161   2.0000                                         
     2  0  0.50     -3728.5341   2.0000                                         
     2  1  1.50     -3344.0404   6.0000                                         
     3  0  0.50      -683.5581   2.0000                                         
     3  1  1.50      -557.3225   6.0000                                         
     3  2  2.50      -358.3853  10.0000                                         
     4  0  0.50       -95.0341   2.0000                                         
     4  1  1.50       -58.5511   6.0000                                         
     4  2  2.50        -7.4440  10.0000                                         
     5  0  0.50        -4.4045   1.0000                                         
     5  1  0.50        -1.3606   0.0000                                         
     4  3  2.50        -1.3606   0.0000                                         
   Description                                                                  
     l       E           TYP  RCUT    TYP  RCUT                                 
     2     -7.4439781     23  2.400                                             
     2     -8.8045607     23  2.400                                             
     0     -4.4044681     23  2.400                                             
     0      1.9520038     23  2.400                                             
     1     -1.3605826     23  2.500                                             
     1     27.2116520     23  2.500                                             
     3     -4.0817478     23  2.400                                             
  local pseudopotential read in
  partial core-charges read in
  partial kinetic energy density read in
  atomic valenz-charges read in
  non local Contribution for L=           2  read in
    real space projection operators read in
  non local Contribution for L=           2  read in
    real space projection operators read in
  non local Contribution for L=           0  read in
    real space projection operators read in
  non local Contribution for L=           0  read in
    real space projection operators read in
  non local Contribution for L=           1  read in
    real space projection operators read in
  non local Contribution for L=           1  read in
    real space projection operators read in
    PAW grid and wavefunctions read in
 
   number of l-projection  operators is LMAX  =           6
   number of lm-projection operators is LMMAX =          18
 
 POTCAR:    PAW_PBE Se 06Sep2000                  
   VRHFIN =Se: s2p4                                                             
   LEXCH  = PE                                                                  
   EATOM  =   257.1286 eV,   18.8984 Ry                                         
                                                                                
   TITEL  = PAW_PBE Se 06Sep2000                                                
   LULTRA =        F    use ultrasoft PP ?                                      
   IUNSCR =        1    unscreen: 0-lin 1-nonlin 2-no                           
   RPACOR =    1.900    partial core radius                                     
   POMASS =   78.960; ZVAL   =    6.000    mass and valenz                      
   RCORE  =    2.100    outmost cutoff radius                                   
   RWIGS  =    2.200; RWIGS  =    1.164    wigner-seitz radius (au A)           
   ENMAX  =  211.555; ENMIN  =  158.666 eV                                      
   ICORE  =        3    local potential                                         
   LCOR   =        T    correct aug charges                                     
   LPAW   =        T    paw PP                                                  
   EAUG   =  446.842                                                            
   DEXC   =    0.000                                                            
   RMAX   =    2.147    core radius for proj-oper                               
   RAUG   =    1.300    factor for augmentation sphere                          
   RDEP   =    2.177    radius for radial grids                                 
   RDEPT  =    1.928    core radius for aug-charge                              
                                                                                
   Atomic configuration                                                         
   10 entries                                                                   
     n  l   j            E        occ.                                          
     1  0  0.50    -12503.4787   2.0000                                         
     2  0  0.50     -1606.9547   2.0000                                         
     2  1  1.50     -1413.3140   6.0000                                         
     3  0  0.50      -213.4885   2.0000                                         
     3  1  1.50      -152.9538   6.0000                                         
     3  2  2.50       -53.1221  10.0000                                         
     4  0  0.50       -17.2865   2.0000                                         
     4  1  0.50        -6.5110   4.0000                                         
     4  2  2.50        -6.8029   0.0000                                         
     4  3  2.50        -6.8029   0.0000                                         
   Description                                                                  
     l       E           TYP  RCUT    TYP  RCUT                                 
     0    -17.2865377     23  2.100                                             
     0    -15.3094411     23  2.100                                             
     1     -6.5110275     23  2.100                                             
     1     -0.0695192     23  2.100                                             
     2     -6.8029130     23  2.100                                             
     3     -1.3605826      7  2.100                                             
  local pseudopotential read in
  partial core-charges read in
  partial kinetic energy density read in
  atomic valenz-charges read in
  non local Contribution for L=           0  read in
    real space projection operators read in
  non local Contribution for L=           0  read in
    real space projection operators read in
  non local Contribution for L=           1  read in
    real space projection operators read in
  non local Contribution for L=           1  read in
    real space projection operators read in
  non local Contribution for L=           2  read in
    real space projection operators read in
    PAW grid and wavefunctions read in
 
   number of l-projection  operators is LMAX  =           5
   number of lm-projection operators is LMMAX =          13
 

 ----------------------------------------------------------------------------- 
|                                                                             |
|  ADVICE TO THIS USER RUNNING 'VASP/VAMP'   (HEAR YOUR MASTER'S VOICE ...):  |
|                                                                             |
|      You have a (more or less) 'large supercell' and for larger cells       |
|      it might be more efficient to use real space projection opertators     |
|      So try LREAL= Auto  in the INCAR   file.                               |
|      Mind:          For very  accurate calculation you might also keep the  |
|      reciprocal projection scheme          (i.e. LREAL=.FALSE.)             |
|                                                                             |
 ----------------------------------------------------------------------------- 


 ----------------------------------------------------------------------------- 
|                                                                             |
|  ADVICE TO THIS USER RUNNING 'VASP/VAMP'   (HEAR YOUR MASTER'S VOICE ...):  |
|                                                                             |
|      You enforced a specific xc-type in the INCAR file,                     |
|      a different type was found on the POTCAR file                          |
|          I HOPE YOU KNOW, WHAT YOU ARE  DOING                               |
|                                                                             |
 ----------------------------------------------------------------------------- 

  PAW_PBE Ag 02Apr2005                  :
 energy of atom  1       EATOM=-1037.2675
 kinetic energy error for atom=    0.0011 (will be added to EATOM!!)
  PAW_PBE Se 06Sep2000                  :
 energy of atom  2       EATOM= -257.1286
 kinetic energy error for atom=    0.0005 (will be added to EATOM!!)
 
 
 POSCAR: # Compound: Ag96Se48. Old comment: Ag2Se
  positions in direct lattice
  No initial velocities read in
 exchange correlation table for  LEXCH =       14
   RHO(1)=    0.500       N(1)  =     2000
   RHO(2)=  100.500       N(2)  =     4000
 


--------------------------------------------------------------------------------------------------------


 ion  position               nearest neighbor table
   1  0.430  0.172  0.332- 102 2.68 137 2.74 122 2.81  86 2.84 126 2.85  65 2.87  61 2.87  14 2.92

   2  0.930  0.172  0.332- 101 2.68 138 2.74 121 2.81  85 2.84 125 2.85  66 2.87  62 2.87  13 2.92

   3  0.430  0.672  0.332- 104 2.68 139 2.74 124 2.81  88 2.84 128 2.85  67 2.87  63 2.87  16 2.92

   4  0.930  0.672  0.332- 103 2.68 140 2.74 123 2.81  87 2.84 127 2.85  68 2.87  64 2.87  15 2.92

   5  0.430  0.172  0.666- 106 2.68 141 2.74 126 2.81  90 2.84 130 2.85  69 2.87  65 2.87  18 2.92

   6  0.930  0.172  0.666- 105 2.68 142 2.74 125 2.81  89 2.84 129 2.85  70 2.87  66 2.87  17 2.92

   7  0.430  0.672  0.666- 108 2.68 143 2.74 128 2.81  92 2.84 132 2.85  71 2.87  67 2.87  20 2.92

   8  0.930  0.672  0.666- 107 2.68 144 2.74 127 2.81  91 2.84 131 2.85  72 2.87  68 2.87  19 2.92

   9  0.430  0.172  0.999-  98 2.68 133 2.74 130 2.81  94 2.84 122 2.85  61 2.87  69 2.87  22 2.92

  10  0.930  0.172  0.999-  97 2.68 134 2.74 129 2.81  93 2.84 121 2.85  62 2.87  70 2.87  21 2.92

  11  0.430  0.672  0.999- 100 2.68 135 2.74 132 2.81  96 2.84 124 2.85  63 2.87  71 2.87  24 2.92

  12  0.930  0.672  0.999-  99 2.68 136 2.74 131 2.81  95 2.84 123 2.85  64 2.87  72 2.87  23 2.92

  13  0.070  0.328  0.332- 103 2.68 137 2.74 121 2.81  74 2.84 125 2.85  53 2.87  49 2.87   2 2.92

  14  0.570  0.328  0.332- 104 2.68 138 2.74 122 2.81  73 2.84 126 2.85  54 2.87  50 2.87   1 2.92

  15  0.070  0.828  0.332- 101 2.68 139 2.74 123 2.81  76 2.84 127 2.85  55 2.87  51 2.87   4 2.92

  16  0.570  0.828  0.332- 102 2.68 140 2.74 124 2.81  75 2.84 128 2.85  56 2.87  52 2.87   3 2.92

  17  0.070  0.328  0.666- 107 2.68 141 2.74 125 2.81  78 2.84 129 2.85  57 2.87  53 2.87   6 2.92

  18  0.570  0.328  0.666- 108 2.68 142 2.74 126 2.81  77 2.84 130 2.85  58 2.87  54 2.87   5 2.92

  19  0.070  0.828  0.666- 105 2.68 143 2.74 127 2.81  80 2.84 131 2.85  59 2.87  55 2.87   8 2.92

  20  0.570  0.828  0.666- 106 2.68 144 2.74 128 2.81  79 2.84 132 2.85  60 2.87  56 2.87   7 2.92

  21  0.070  0.328  0.999-  99 2.68 133 2.74 129 2.81  82 2.84 121 2.85  49 2.87  57 2.87  10 2.92

  22  0.570  0.328  0.999- 100 2.68 134 2.74 130 2.81  81 2.84 122 2.85  50 2.87  58 2.87   9 2.92

  23  0.070  0.828  0.999-  97 2.68 135 2.74 131 2.81  84 2.84 123 2.85  51 2.87  59 2.87  12 2.92

  24  0.570  0.828  0.999-  98 2.68 136 2.74 132 2.81  83 2.84 124 2.85  52 2.87  60 2.87  11 2.92

  25  0.320  0.422  0.056- 133 2.68 100 2.74 111 2.81  49 2.84 119 2.85  81 2.87  73 2.87  39 2.92

  26  0.820  0.422  0.056- 134 2.68  99 2.74 112 2.81  50 2.84 120 2.85  82 2.87  74 2.87  40 2.92

  27  0.320  0.922  0.056- 135 2.68  98 2.74 109 2.81  51 2.84 117 2.85  83 2.87  75 2.87  37 2.92

  28  0.820  0.922  0.056- 136 2.68  97 2.74 110 2.81  52 2.84 118 2.85  84 2.87  76 2.87  38 2.92

  29  0.320  0.422  0.390- 137 2.68 104 2.74 115 2.81  53 2.84 111 2.85  73 2.87  77 2.87  43 2.92

  30  0.820  0.422  0.390- 138 2.68 103 2.74 116 2.81  54 2.84 112 2.85  74 2.87  78 2.87  44 2.92

  31  0.320  0.922  0.390- 139 2.68 102 2.74 113 2.81  55 2.84 109 2.84  75 2.87  79 2.87  41 2.92

  32  0.820  0.922  0.390- 140 2.68 101 2.74 114 2.81  56 2.84 110 2.85  76 2.87  80 2.87  42 2.92

  33  0.320  0.422  0.723- 141 2.68 108 2.74 119 2.81  57 2.84 115 2.85  77 2.87  81 2.87  47 2.92

  34  0.820  0.422  0.723- 142 2.68 107 2.74 120 2.81  58 2.84 116 2.85  78 2.87  82 2.87  48 2.92

  35  0.320  0.922  0.723- 143 2.68 106 2.74 117 2.81  59 2.84 113 2.85  79 2.87  83 2.87  45 2.92

  36  0.820  0.922  0.723- 144 2.68 105 2.74 118 2.81  60 2.84 114 2.85  80 2.87  84 2.87  46 2.92

  37  0.180  0.078  0.056- 133 2.68  97 2.74 109 2.82  61 2.84 117 2.85  93 2.87  85 2.87  27 2.92

  38  0.680  0.078  0.056- 134 2.68  98 2.74 110 2.81  62 2.84 118 2.85  94 2.87  86 2.87  28 2.92

  39  0.180  0.578  0.056- 135 2.68  99 2.74 111 2.81  63 2.84 119 2.85  95 2.87  87 2.87  25 2.92

  40  0.680  0.578  0.056- 136 2.68 100 2.74 112 2.81  64 2.84 120 2.85  96 2.87  88 2.87  26 2.92

  41  0.180  0.078  0.390- 137 2.68 101 2.74 113 2.81  65 2.84 109 2.85  85 2.87  89 2.87  31 2.92

  42  0.680  0.078  0.390- 138 2.68 102 2.74 114 2.81  66 2.84 110 2.85  86 2.87  90 2.87  32 2.92

  43  0.180  0.578  0.390- 139 2.68 103 2.74 115 2.81  67 2.84 111 2.85  87 2.87  91 2.87  29 2.92

  44  0.680  0.578  0.390- 140 2.68 104 2.74 116 2.81  68 2.84 112 2.85  88 2.87  92 2.87  30 2.92

  45  0.180  0.078  0.723- 141 2.68 105 2.74 117 2.81  69 2.84 113 2.85  89 2.87  93 2.87  35 2.92

  46  0.680  0.078  0.723- 142 2.68 106 2.74 118 2.81  70 2.84 114 2.85  90 2.87  94 2.87  36 2.92

  47  0.180  0.578  0.723- 143 2.68 107 2.74 119 2.81  71 2.84 115 2.85  91 2.87  95 2.87  33 2.92

  48  0.680  0.578  0.723- 144 2.68 108 2.74 120 2.81  72 2.84 116 2.85  92 2.87  96 2.87  34 2.92

  49  0.180  0.328  0.166- 111 2.68 121 2.74 133 2.81  25 2.84 137 2.85  21 2.87  13 2.87  61 2.92

  50  0.680  0.328  0.166- 112 2.68 122 2.74 134 2.81  26 2.84 138 2.85  22 2.87  14 2.87  62 2.92

  51  0.180  0.828  0.166- 109 2.69 123 2.74 135 2.81  27 2.84 139 2.85  23 2.87  15 2.87  63 2.92

  52  0.680  0.828  0.166- 110 2.68 124 2.74 136 2.81  28 2.84 140 2.85  24 2.87  16 2.87  64 2.92

  53  0.180  0.328  0.499- 115 2.68 125 2.74 137 2.81  29 2.84 141 2.85  13 2.87  17 2.87  65 2.92

  54  0.680  0.328  0.499- 116 2.68 126 2.74 138 2.81  30 2.84 142 2.85  14 2.87  18 2.87  66 2.92

  55  0.180  0.828  0.499- 113 2.68 127 2.74 139 2.81  31 2.84 143 2.85  15 2.87  19 2.87  67 2.92

  56  0.680  0.828  0.499- 114 2.68 128 2.74 140 2.81  32 2.84 144 2.85  16 2.87  20 2.87  68 2.92

  57  0.180  0.328  0.832- 119 2.68 129 2.74 141 2.81  33 2.84 133 2.85  17 2.87  21 2.87  69 2.92

  58  0.680  0.328  0.832- 120 2.68 130 2.74 142 2.81  34 2.84 134 2.85  18 2.87  22 2.87  70 2.92

  59  0.180  0.828  0.832- 117 2.68 131 2.74 143 2.81  35 2.84 135 2.85  19 2.87  23 2.87  71 2.92

  60  0.680  0.828  0.832- 118 2.68 132 2.74 144 2.81  36 2.84 136 2.85  20 2.87  24 2.87  72 2.92

  61  0.320  0.172  0.166- 109 2.68 122 2.74 133 2.81  37 2.84 137 2.85   9 2.87   1 2.87  49 2.92

  62  0.820  0.172  0.166- 110 2.68 121 2.74 134 2.81  38 2.84 138 2.85  10 2.87   2 2.87  50 2.92

  63  0.320  0.672  0.166- 111 2.68 124 2.74 135 2.81  39 2.84 139 2.85  11 2.87   3 2.87  51 2.92

  64  0.820  0.672  0.166- 112 2.68 123 2.74 136 2.81  40 2.84 140 2.85  12 2.87   4 2.87  52 2.92

  65  0.320  0.172  0.499- 113 2.68 126 2.74 137 2.81  41 2.84 141 2.85   1 2.87   5 2.87  53 2.92

  66  0.820  0.172  0.499- 114 2.68 125 2.74 138 2.81  42 2.84 142 2.85   2 2.87   6 2.87  54 2.92

  67  0.320  0.672  0.499- 115 2.68 128 2.74 139 2.81  43 2.84 143 2.85   3 2.87   7 2.87  55 2.92

  68  0.820  0.672  0.499- 116 2.68 127 2.74 140 2.81  44 2.84 144 2.85   4 2.87   8 2.87  56 2.92

  69  0.320  0.172  0.832- 117 2.68 130 2.74 141 2.81  45 2.84 133 2.85   5 2.87   9 2.87  57 2.92

  70  0.820  0.172  0.832- 118 2.68 129 2.74 142 2.81  46 2.84 134 2.85   6 2.87  10 2.87  58 2.92

  71  0.320  0.672  0.832- 119 2.68 132 2.74 143 2.81  47 2.84 135 2.85   7 2.87  11 2.87  59 2.92

  72  0.820  0.672  0.832- 120 2.68 131 2.74 144 2.81  48 2.84 136 2.85   8 2.87  12 2.87  60 2.92

  73  0.430  0.422  0.223- 122 2.68 111 2.74 104 2.81  14 2.84 100 2.85  29 2.87  25 2.87  88 2.92

  74  0.930  0.422  0.223- 121 2.68 112 2.74 103 2.81  13 2.84  99 2.85  30 2.87  26 2.87  87 2.92

  75  0.430  0.922  0.223- 124 2.68 109 2.73 102 2.81  16 2.84  98 2.85  31 2.87  27 2.87  86 2.92

  76  0.930  0.922  0.223- 123 2.68 110 2.74 101 2.81  15 2.84  97 2.85  32 2.87  28 2.87  85 2.92

  77  0.430  0.422  0.556- 126 2.68 115 2.74 108 2.81  18 2.84 104 2.85  33 2.87  29 2.87  92 2.92

  78  0.930  0.422  0.556- 125 2.68 116 2.74 107 2.81  17 2.84 103 2.85  34 2.87  30 2.87  91 2.92

  79  0.430  0.922  0.556- 128 2.68 113 2.74 106 2.81  20 2.84 102 2.85  35 2.87  31 2.87  90 2.92

  80  0.930  0.922  0.556- 127 2.68 114 2.74 105 2.81  19 2.84 101 2.85  36 2.87  32 2.87  89 2.92

  81  0.430  0.422  0.890- 130 2.68 119 2.74 100 2.81  22 2.84 108 2.85  25 2.87  33 2.87  96 2.92

  82  0.930  0.422  0.890- 129 2.68 120 2.74  99 2.81  21 2.84 107 2.85  26 2.87  34 2.87  95 2.92

  83  0.430  0.922  0.890- 132 2.68 117 2.74  98 2.81  24 2.84 106 2.85  27 2.87  35 2.87  94 2.92

  84  0.930  0.922  0.890- 131 2.68 118 2.74  97 2.81  23 2.84 105 2.85  28 2.87  36 2.87  93 2.92

  85  0.070  0.078  0.223- 121 2.68 109 2.75 101 2.81   2 2.84  97 2.85  41 2.87  37 2.87  76 2.92

  86  0.570  0.078  0.223- 122 2.68 110 2.74 102 2.81   1 2.84  98 2.85  42 2.87  38 2.87  75 2.92

  87  0.070  0.578  0.223- 123 2.68 111 2.74 103 2.81   4 2.84  99 2.85  43 2.87  39 2.87  74 2.92

  88  0.570  0.578  0.223- 124 2.68 112 2.74 104 2.81   3 2.84 100 2.85  44 2.87  40 2.87  73 2.92

  89  0.070  0.078  0.556- 125 2.68 113 2.74 105 2.81   6 2.84 101 2.85  45 2.87  41 2.87  80 2.92

  90  0.570  0.078  0.556- 126 2.68 114 2.74 106 2.81   5 2.84 102 2.85  46 2.87  42 2.87  79 2.92

  91  0.070  0.578  0.556- 127 2.68 115 2.74 107 2.81   8 2.84 103 2.85  47 2.87  43 2.87  78 2.92

  92  0.570  0.578  0.556- 128 2.68 116 2.74 108 2.81   7 2.84 104 2.85  48 2.87  44 2.87  77 2.92

  93  0.070  0.078  0.890- 129 2.68 117 2.74  97 2.81  10 2.84 105 2.85  37 2.87  45 2.87  84 2.92

  94  0.570  0.078  0.890- 130 2.68 118 2.74  98 2.81   9 2.84 106 2.85  38 2.87  46 2.87  83 2.92

  95  0.070  0.578  0.890- 131 2.68 119 2.74  99 2.81  12 2.84 107 2.85  39 2.87  47 2.87  82 2.92

  96  0.570  0.578  0.890- 132 2.68 120 2.74 100 2.81  11 2.84 108 2.85  40 2.87  48 2.87  81 2.92

  97  0.000  0.000  0.055-  10 2.68  23 2.68  28 2.74  37 2.74  84 2.81  93 2.81  85 2.85  76 2.85

  98  0.500  0.000  0.055-   9 2.68  24 2.68  27 2.74  38 2.74  83 2.81  94 2.81  86 2.85  75 2.85

  99  0.000  0.500  0.055-  12 2.68  21 2.68  26 2.74  39 2.74  82 2.81  95 2.81  87 2.85  74 2.85

 100  0.500  0.500  0.055-  11 2.68  22 2.68  25 2.74  40 2.74  81 2.81  96 2.81  88 2.85  73 2.85

 101  0.000  0.000  0.388-   2 2.68  15 2.68  32 2.74  41 2.74  76 2.81  85 2.81  80 2.85  89 2.85

 102  0.500  0.000  0.388-   1 2.68  16 2.68  31 2.74  42 2.74  75 2.81  86 2.81  79 2.85  90 2.85

 103  0.000  0.500  0.388-   4 2.68  13 2.68  30 2.74  43 2.74  74 2.81  87 2.81  78 2.85  91 2.85

 104  0.500  0.500  0.388-   3 2.68  14 2.68  29 2.74  44 2.74  73 2.81  88 2.81  77 2.85  92 2.85

 105  0.000  0.000  0.721-   6 2.68  19 2.68  36 2.74  45 2.74  80 2.81  89 2.81  84 2.85  93 2.85

 106  0.500  0.000  0.721-   5 2.68  20 2.68  35 2.74  46 2.74  79 2.81  90 2.81  83 2.85  94 2.85

 107  0.000  0.500  0.721-   8 2.68  17 2.68  34 2.74  47 2.74  78 2.81  91 2.81  82 2.85  95 2.85

 108  0.500  0.500  0.721-   7 2.68  18 2.68  33 2.74  48 2.74  77 2.81  92 2.81  81 2.85  96 2.85

 109  0.250  0.000  0.222-  61 2.68  51 2.69  75 2.73  85 2.75  27 2.81  37 2.82  31 2.84  41 2.85

 110  0.750  0.000  0.221-  52 2.68  62 2.68  76 2.74  86 2.74  28 2.81  38 2.81  32 2.85  42 2.85

 111  0.250  0.500  0.221-  49 2.68  63 2.68  73 2.74  87 2.74  25 2.81  39 2.81  29 2.85  43 2.85

 112  0.750  0.500  0.221-  50 2.68  64 2.68  74 2.74  88 2.74  26 2.81  40 2.81  30 2.85  44 2.85

 113  0.250  0.000  0.555-  55 2.68  65 2.68  79 2.74  89 2.74  31 2.81  41 2.81  35 2.85  45 2.85

 114  0.750  0.000  0.555-  56 2.68  66 2.68  80 2.74  90 2.74  32 2.81  42 2.81  36 2.85  46 2.85

 115  0.250  0.500  0.555-  53 2.68  67 2.68  77 2.74  91 2.74  29 2.81  43 2.81  33 2.85  47 2.85

 116  0.750  0.500  0.555-  54 2.68  68 2.68  78 2.74  92 2.74  30 2.81  44 2.81  34 2.85  48 2.85

 117  0.250  0.000  0.888-  59 2.68  69 2.68  83 2.74  93 2.74  35 2.81  45 2.81  37 2.85  27 2.85

 118  0.750  0.000  0.888-  60 2.68  70 2.68  84 2.74  94 2.74  36 2.81  46 2.81  38 2.85  28 2.85

 119  0.250  0.500  0.888-  57 2.68  71 2.68  81 2.74  95 2.74  33 2.81  47 2.81  39 2.85  25 2.85

 120  0.750  0.500  0.888-  58 2.68  72 2.68  82 2.74  96 2.74  34 2.81  48 2.81  40 2.85  26 2.85

 121  0.000  0.250  0.167-  74 2.68  85 2.68  49 2.74  62 2.74   2 2.81  13 2.81  10 2.85  21 2.85

 122  0.500  0.250  0.167-  73 2.68  86 2.68  50 2.74  61 2.74   1 2.81  14 2.81   9 2.85  22 2.85

 123  0.000  0.750  0.167-  76 2.68  87 2.68  51 2.74  64 2.74   4 2.81  15 2.81  12 2.85  23 2.85

 124  0.500  0.750  0.167-  75 2.68  88 2.68  52 2.74  63 2.74   3 2.81  16 2.81  11 2.85  24 2.85

 125  0.000  0.250  0.501-  78 2.68  89 2.68  53 2.74  66 2.74   6 2.81  17 2.81  13 2.85   2 2.85

 126  0.500  0.250  0.501-  77 2.68  90 2.68  54 2.74  65 2.74   5 2.81  18 2.81  14 2.85   1 2.85

 127  0.000  0.750  0.501-  80 2.68  91 2.68  55 2.74  68 2.74   8 2.81  19 2.81  15 2.85   4 2.85

 128  0.500  0.750  0.501-  79 2.68  92 2.68  56 2.74  67 2.74   7 2.81  20 2.81  16 2.85   3 2.85

 129  0.000  0.250  0.834-  82 2.68  93 2.68  57 2.74  70 2.74  10 2.81  21 2.81  17 2.85   6 2.85

 130  0.500  0.250  0.834-  81 2.68  94 2.68  58 2.74  69 2.74   9 2.81  22 2.81  18 2.85   5 2.85

 131  0.000  0.750  0.834-  84 2.68  95 2.68  59 2.74  72 2.74  12 2.81  23 2.81  19 2.85   8 2.85

 132  0.500  0.750  0.834-  83 2.68  96 2.68  60 2.74  71 2.74  11 2.81  24 2.81  20 2.85   7 2.85

 133  0.250  0.250  0.001-  25 2.68  37 2.68   9 2.74  21 2.74  49 2.81  61 2.81  57 2.85  69 2.85

 134  0.750  0.250  0.001-  26 2.68  38 2.68  10 2.74  22 2.74  50 2.81  62 2.81  58 2.85  70 2.85

 135  0.250  0.750  0.001-  27 2.68  39 2.68  11 2.74  23 2.74  51 2.81  63 2.81  59 2.85  71 2.85

 136  0.750  0.750  0.001-  28 2.68  40 2.68  12 2.74  24 2.74  52 2.81  64 2.81  60 2.85  72 2.85

 137  0.250  0.250  0.334-  29 2.68  41 2.68   1 2.74  13 2.74  53 2.81  65 2.81  61 2.85  49 2.85

 138  0.750  0.250  0.334-  30 2.68  42 2.68   2 2.74  14 2.74  54 2.81  66 2.81  62 2.85  50 2.85

 139  0.250  0.750  0.334-  31 2.68  43 2.68   3 2.74  15 2.74  55 2.81  67 2.81  63 2.85  51 2.85

 140  0.750  0.750  0.334-  32 2.68  44 2.68   4 2.74  16 2.74  56 2.81  68 2.81  64 2.85  52 2.85

 141  0.250  0.250  0.667-  33 2.68  45 2.68   5 2.74  17 2.74  57 2.81  69 2.81  65 2.85  53 2.85

 142  0.750  0.250  0.667-  34 2.68  46 2.68   6 2.74  18 2.74  58 2.81  70 2.81  66 2.85  54 2.85

 143  0.250  0.750  0.667-  35 2.68  47 2.68   7 2.74  19 2.74  59 2.81  71 2.81  67 2.85  55 2.85

 144  0.750  0.750  0.667-  36 2.68  48 2.68   8 2.74  20 2.74  60 2.81  72 2.81  68 2.85  56 2.85

 

IMPORTANT INFORMATION: All symmetrisations will be switched off!
NOSYMM: (Re-)initialisation of all symmetry stuff for point group C_1.

 
 
 KPOINTS: # No comment                            

Automatic generation of k-mesh.
Space group operators:
 irot       det(A)        alpha          n_x          n_y          n_z        tau_x        tau_y        tau_z
    1     1.000000     0.000000     1.000000     0.000000     0.000000     0.000000     0.000000     0.000000
 
 Subroutine IBZKPT returns following result:
 ===========================================
 
 Found      8 irreducible k-points:
 
 Following reciprocal coordinates:
            Coordinates               Weight
  0.000000  0.000000  0.000000      1.000000
  0.500000 -0.000000  0.000000      1.000000
  0.000000  0.500000  0.000000      1.000000
  0.500000  0.500000  0.000000      1.000000
  0.000000  0.000000  0.500000      1.000000
  0.500000 -0.000000  0.500000      1.000000
  0.000000  0.500000  0.500000      1.000000
  0.500000  0.500000  0.500000      1.000000
 
 Following cartesian coordinates:
            Coordinates               Weight
  0.000000  0.000000  0.000000      1.000000
  0.035688  0.000004  0.000000      1.000000
 -0.000004  0.036319  0.000000      1.000000
  0.035684  0.036323  0.000000      1.000000
  0.000000  0.000000  0.034364      1.000000
  0.035688  0.000004  0.034364      1.000000
 -0.000004  0.036319  0.034364      1.000000
  0.035684  0.036323  0.034364      1.000000
 


--------------------------------------------------------------------------------------------------------




 Dimension of arrays:
   k-points           NKPTS =      8   k-points in BZ     NKDIM =      8   number of bands    NBANDS=    806
   number of dos      NEDOS =    301   number of ions     NIONS =    144
   non local maximal  LDIM  =      6   non local SUM 2l+1 LMDIM =     18
   total plane-waves  NPLWV = ******
   max r-space proj   IRMAX =      1   max aug-charges    IRDMAX= 254476
   dimension x,y,z NGX =   120 NGY =  120 NGZ =  126
   dimension x,y,z NGXF=   240 NGYF=  240 NGZF=  252
   support grid    NGXF=   480 NGYF=  480 NGZF=  504
   ions per type =              96  48
   NGX,Y,Z   is equivalent  to a cutoff of  14.24, 14.49, 14.40 a.u.
   NGXF,Y,Z  is equivalent  to a cutoff of  28.48, 28.98, 28.79 a.u.

 SYSTEM =  unknown system                          
 POSCAR =  # Compound: Ag96Se48. Old comment: Ag2Se

 Startparameter for this run:
   NWRITE =      2    write-flag & timer
   PREC   = accura    normal or accurate (medium, high low for compatibility)
   ISTART =      0    job   : 0-new  1-cont  2-samecut
   ICHARG =      2    charge: 1-file 2-atom 10-const
   ISPIN  =      1    spin polarized calculation?
   LNONCOLLINEAR =      F non collinear calculations
   LSORBIT =      F    spin-orbit coupling
   INIWAV =      1    electr: 0-lowe 1-rand  2-diag
   LASPH  =      T    aspherical Exc in radial PAW
   METAGGA=      F    non-selfconsistent MetaGGA calc.

 Electronic Relaxation 1
   ENCUT  =  650.0 eV  47.77 Ry    6.91 a.u.  29.12 28.62 30.25*2*pi/ulx,y,z
   ENINI  =  650.0     initial cutoff
   ENAUG  =  446.8 eV  augmentation charge cutoff
   NELM   =    200;   NELMIN=  8; NELMDL= -5     # of ELM steps 
   EDIFF  = 0.1E-07   stopping-criterion for ELM
   LREAL  =      F    real-space projection
   NLSPLINE    = F    spline interpolate recip. space projectors
   LCOMPAT=      F    compatible to vasp.4.4
   GGA_COMPAT  = T    GGA compatible to vasp.4.4-vasp.4.6
   LMAXPAW     = -100 max onsite density
   LMAXMIX     =    2 max onsite mixed and CHGCAR
   VOSKOWN=      0    Vosko Wilk Nusair interpolation
   ROPT   =    0.00000   0.00000
 Ionic relaxation
   EDIFFG = 0.1E-06   stopping-criterion for IOM
   NSW    =      0    number of steps for IOM
   NBLOCK =      1;   KBLOCK =      1    inner block; outer block 
   IBRION =     -1    ionic relax: 0-MD 1-quasi-New 2-CG
   NFREE  =      0    steps in history (QN), initial steepest desc. (CG)
   ISIF   =      3    stress and relaxation
   IWAVPR =     10    prediction:  0-non 1-charg 2-wave 3-comb
   ISYM   =      0    0-nonsym 1-usesym 2-fastsym
   LCORR  =      T    Harris-Foulkes like correction to forces

   POTIM  = 0.5000    time-step for ionic-motion
   TEIN   =    0.0    initial temperature
   TEBEG  =    0.0;   TEEND  =   0.0 temperature during run
   SMASS  =  -3.00    Nose mass-parameter (am)
   estimated Nose-frequenzy (Omega)   =  0.10E-29 period in steps =****** mass=  -0.449E-26a.u.
   SCALEE = 1.0000    scale energy and forces
   NPACO  =    256;   APACO  = 16.0  distance and # of slots for P.C.
   PSTRESS=    0.0 pullay stress

  Mass of Ions in am
   POMASS = 107.87 78.96
  Ionic Valenz
   ZVAL   =  11.00  6.00
  Atomic Wigner-Seitz radii
   RWIGS  =  -1.00 -1.00
  virtual crystal weights 
   VCA    =   1.00  1.00
   NELECT =    1344.0000    total number of electrons
   NUPDOWN=      -1.0000    fix difference up-down

 DOS related values:
   EMIN   =  10.00;   EMAX   =-10.00  energy-range for DOS
   EFERMI =   0.00
   ISMEAR =     0;   SIGMA  =   0.05  broadening in eV -4-tet -1-fermi 0-gaus

 Electronic relaxation 2 (details)
   IALGO  =     38    algorithm
   LDIAG  =      T    sub-space diagonalisation (order eigenvalues)
   LSUBROT=      F    optimize rotation matrix (better conditioning)
   TURBO    =      0    0=normal 1=particle mesh
   IRESTART =      0    0=no restart 2=restart with 2 vectors
   NREBOOT  =      0    no. of reboots
   NMIN     =      0    reboot dimension
   EREF     =   0.00    reference energy to select bands
   IMIX   =      4    mixing-type and parameters
     AMIX     =   0.40;   BMIX     =  1.00
     AMIX_MAG =   1.60;   BMIX_MAG =  1.00
     AMIN     =   0.10
     WC   =   100.;   INIMIX=   1;  MIXPRE=   1;  MAXMIX= -45

 Intra band minimization:
   WEIMIN = 0.0000     energy-eigenvalue tresh-hold
   EBREAK =  0.31E-11  absolut break condition
   DEPER  =   0.30     relativ break condition  

   TIME   =   0.40     timestep for ELM

  volume/ion in A,a.u.               =      19.49       131.52
  Fermi-wavevector in a.u.,A,eV,Ry     =   1.280824  2.420406 22.320485  1.640509
  Thomas-Fermi vector in A             =   2.413229
 
 Write flags
   LWAVE        =      F    write WAVECAR
   LDOWNSAMPLE  =      F    k-point downsampling of WAVECAR
   LCHARG       =      T    write CHGCAR
   LVTOT        =      F    write LOCPOT, total local potential
   LVHAR        =      F    write LOCPOT, Hartree potential only
   LELF         =      F    write electronic localiz. function (ELF)
   LORBIT       =      0    0 simple, 1 ext, 2 COOP (PROOUT), +10 PAW based schemes


 Dipole corrections
   LMONO  =      F    monopole corrections only (constant potential shift)
   LDIPOL =      F    correct potential (dipole corrections)
   IDIPOL =      0    1-x, 2-y, 3-z, 4-all directions 
   EPSILON=  1.0000000 bulk dielectric constant

 Exchange correlation treatment:
   GGA     =    PS    GGA type
   LEXCH   =    14    internal setting for exchange type
   VOSKOWN=      0    Vosko Wilk Nusair interpolation
   LHFCALC =     F    Hartree Fock is set to
   LHFONE  =     F    Hartree Fock one center treatment
   AEXX    =    0.0000 exact exchange contribution

 Linear response parameters
   LEPSILON=     F    determine dielectric tensor
   LRPA    =     F    only Hartree local field effects (RPA)
   LNABLA  =     F    use nabla operator in PAW spheres
   LVEL    =     F    velocity operator in full k-point grid
   LINTERFAST=   F  fast interpolation
   KINTER  =     0    interpolate to denser k-point grid
   CSHIFT  =0.1000    complex shift for real part using Kramers Kronig
   OMEGAMAX=  -1.0    maximum frequency
   DEG_THRESHOLD= 0.2000000E-02 threshold for treating states as degnerate
   RTIME   =   -0.100 relaxation time in fs
  (WPLASMAI=    0.000 imaginary part of plasma frequency in eV, 0.658/RTIME)
   DFIELD  = 0.0000000 0.0000000 0.0000000 field for delta impulse in time
 
 Orbital magnetization related:
   ORBITALMAG=     F  switch on orbital magnetization
   LCHIMAG   =     F  perturbation theory with respect to B field
   DQ        =  0.001000  dq finite difference perturbation B field
   LLRAUG    =     F  two centre corrections for induced B field



--------------------------------------------------------------------------------------------------------


 Static calculation
 charge density and potential will be updated during run
 non-spin polarized calculation
 Variant of blocked Davidson
 Davidson routine will perform the subspace rotation
 perform sub-space diagonalisation
    after iterative eigenvector-optimisation
 modified Broyden-mixing scheme, WC =      100.0
 initial mixing is a Kerker type mixing with AMIX =  0.4000 and BMIX =      1.0000
 Hartree-type preconditioning will be used
 using additional bands          134
 reciprocal scheme for non local part
 use partial core corrections
 calculate Harris-corrections to forces 
   (improved forces if not selfconsistent)
 use gradient corrections 
 use of overlap-Matrix (Vanderbilt PP)
 Gauss-broadening in eV      SIGMA  =   0.05


--------------------------------------------------------------------------------------------------------


  energy-cutoff  :      650.00
  volume of cell :     2806.44
      direct lattice vectors                 reciprocal lattice vectors
    14.010395980  0.001391380  0.000000000     0.071375569  0.000007787  0.000000000
    -0.001501960 13.766910920  0.000000000    -0.000007214  0.072637936  0.000000000
     0.000000000  0.000000000 14.550193860     0.000000000  0.000000000  0.068727607

  length of vectors
    14.010396049 13.766911002 14.550193860     0.071375570  0.072637936  0.068727607


 
 k-points in units of 2pi/SCALE and weight: # No comment                            
   0.00000000  0.00000000  0.00000000       0.125
   0.03568778  0.00000389  0.00000000       0.125
  -0.00000361  0.03631897  0.00000000       0.125
   0.03568418  0.03632286  0.00000000       0.125
   0.00000000  0.00000000  0.03436380       0.125
   0.03568778  0.00000389  0.03436380       0.125
  -0.00000361  0.03631897  0.03436380       0.125
   0.03568418  0.03632286  0.03436380       0.125
 
 k-points in reciprocal lattice and weights: # No comment                            
   0.00000000  0.00000000  0.00000000       0.125
   0.50000000 -0.00000000  0.00000000       0.125
   0.00000000  0.50000000  0.00000000       0.125
   0.50000000  0.50000000  0.00000000       0.125
   0.00000000  0.00000000  0.50000000       0.125
   0.50000000 -0.00000000  0.50000000       0.125
   0.00000000  0.50000000  0.50000000       0.125
   0.50000000  0.50000000  0.50000000       0.125
 
 position of ions in fractional coordinates (direct lattice) 
   0.42987898  0.17167077  0.33247735
   0.92987898  0.17167077  0.33247735
   0.42987898  0.67167077  0.33247735
   0.92987898  0.67167077  0.33247735
   0.42987898  0.17167077  0.66581068
   0.92987898  0.17167077  0.66581068
   0.42987898  0.67167077  0.66581068
   0.92987898  0.67167077  0.66581068
   0.42987898  0.17167077  0.99914401
   0.92987898  0.17167077  0.99914401
   0.42987898  0.67167077  0.99914401
   0.92987898  0.67167077  0.99914401
   0.07012102  0.32832923  0.33247735
   0.57012102  0.32832923  0.33247735
   0.07012102  0.82832923  0.33247735
   0.57012102  0.82832923  0.33247735
   0.07012102  0.32832923  0.66581068
   0.57012102  0.32832923  0.66581068
   0.07012102  0.82832923  0.66581068
   0.57012102  0.82832923  0.66581068
   0.07012102  0.32832923  0.99914401
   0.57012102  0.32832923  0.99914401
   0.07012102  0.82832923  0.99914401
   0.57012102  0.82832923  0.99914401
   0.32012053  0.42167367  0.05641075
   0.82012053  0.42167367  0.05641075
   0.32012053  0.92167367  0.05641075
   0.82012053  0.92167367  0.05641075
   0.32012053  0.42167367  0.38974408
   0.82012053  0.42167367  0.38974408
   0.32012053  0.92167367  0.38974408
   0.82012053  0.92167367  0.38974408
   0.32012053  0.42167367  0.72307741
   0.82012053  0.42167367  0.72307741
   0.32012053  0.92167367  0.72307741
   0.82012053  0.92167367  0.72307741
   0.17987947  0.07832633  0.05641075
   0.67987947  0.07832633  0.05641075
   0.17987947  0.57832633  0.05641075
   0.67987947  0.57832633  0.05641075
   0.17987947  0.07832633  0.38974408
   0.67987947  0.07832633  0.38974408
   0.17987947  0.57832633  0.38974408
   0.67987947  0.57832633  0.38974408
   0.17987947  0.07832633  0.72307741
   0.67987947  0.07832633  0.72307741
   0.17987947  0.57832633  0.72307741
   0.67987947  0.57832633  0.72307741
   0.17987776  0.32832369  0.16580856
   0.67987776  0.32832369  0.16580856
   0.17987776  0.82832369  0.16580856
   0.67987776  0.82832369  0.16580856
   0.17987776  0.32832369  0.49914189
   0.67987776  0.32832369  0.49914189
   0.17987776  0.82832369  0.49914189
   0.67987776  0.82832369  0.49914189
   0.17987776  0.32832369  0.83247522
   0.67987776  0.32832369  0.83247522
   0.17987776  0.82832369  0.83247522
   0.67987776  0.82832369  0.83247522
   0.32012224  0.17167631  0.16580856
   0.82012224  0.17167631  0.16580856
   0.32012224  0.67167631  0.16580856
   0.82012224  0.67167631  0.16580856
   0.32012224  0.17167631  0.49914189
   0.82012224  0.17167631  0.49914189
   0.32012224  0.67167631  0.49914189
   0.82012224  0.67167631  0.49914189
   0.32012224  0.17167631  0.83247522
   0.82012224  0.17167631  0.83247522
   0.32012224  0.67167631  0.83247522
   0.82012224  0.67167631  0.83247522
   0.42987656  0.42167494  0.22308000
   0.92987656  0.42167494  0.22308000
   0.42987656  0.92167494  0.22308000
   0.92987656  0.92167494  0.22308000
   0.42987656  0.42167494  0.55641333
   0.92987656  0.42167494  0.55641333
   0.42987656  0.92167494  0.55641333
   0.92987656  0.92167494  0.55641333
   0.42987656  0.42167494  0.88974666
   0.92987656  0.42167494  0.88974666
   0.42987656  0.92167494  0.88974666
   0.92987656  0.92167494  0.88974666
   0.07012344  0.07832506  0.22308000
   0.57012344  0.07832506  0.22308000
   0.07012344  0.57832506  0.22308000
   0.57012344  0.57832506  0.22308000
   0.07012344  0.07832506  0.55641333
   0.57012344  0.07832506  0.55641333
   0.07012344  0.57832506  0.55641333
   0.57012344  0.57832506  0.55641333
   0.07012344  0.07832506  0.88974666
   0.57012344  0.07832506  0.88974666
   0.07012344  0.57832506  0.88974666
   0.57012344  0.57832506  0.88974666
   0.00000000  0.00000000  0.05479365
   0.50000000  0.00000000  0.05479365
   0.00000000  0.50000000  0.05479365
   0.50000000  0.50000000  0.05479365
   0.00000000  0.00000000  0.38812698
   0.50000000  0.00000000  0.38812698
   0.00000000  0.50000000  0.38812698
   0.50000000  0.50000000  0.38812698
   0.00000000  0.00000000  0.72146032
   0.50000000  0.00000000  0.72146032
   0.00000000  0.50000000  0.72146032
   0.50000000  0.50000000  0.72146032
   0.25049507  0.00000000  0.22194713
   0.75000000  0.00000000  0.22145206
   0.25000000  0.50000000  0.22145206
   0.75000000  0.50000000  0.22145206
   0.25000000  0.00000000  0.55478539
   0.75000000  0.00000000  0.55478539
   0.25000000  0.50000000  0.55478539
   0.75000000  0.50000000  0.55478539
   0.25000000  0.00000000  0.88811873
   0.75000000  0.00000000  0.88811873
   0.25000000  0.50000000  0.88811873
   0.75000000  0.50000000  0.88811873
   0.00000000  0.25000000  0.16743769
   0.50000000  0.25000000  0.16743769
   0.00000000  0.75000000  0.16743769
   0.50000000  0.75000000  0.16743769
   0.00000000  0.25000000  0.50077102
   0.50000000  0.25000000  0.50077102
   0.00000000  0.75000000  0.50077102
   0.50000000  0.75000000  0.50077102
   0.00000000  0.25000000  0.83410435
   0.50000000  0.25000000  0.83410435
   0.00000000  0.75000000  0.83410435
   0.50000000  0.75000000  0.83410435
   0.25000000  0.25000000  0.00076332
   0.75000000  0.25000000  0.00076332
   0.25000000  0.75000000  0.00076332
   0.75000000  0.75000000  0.00076332
   0.25000000  0.25000000  0.33409665
   0.75000000  0.25000000  0.33409665
   0.25000000  0.75000000  0.33409665
   0.75000000  0.75000000  0.33409665
   0.25000000  0.25000000  0.66742999
   0.75000000  0.25000000  0.66742999
   0.25000000  0.75000000  0.66742999
   0.75000000  0.75000000  0.66742999
 
 position of ions in cartesian coordinates  (Angst):
   6.02251689  2.36397432  4.83760985
  13.02771488  2.36467001  4.83760985
   6.02176591  9.24742978  4.83760985
  13.02696390  9.24812547  4.83760985
   6.02251689  2.36397432  9.68767447
  13.02771488  2.36467001  9.68767447
   6.02176591  9.24742978  9.68767447
  13.02696390  9.24812547  9.68767447
   6.02251689  2.36397432 14.53773909
  13.02771488  2.36467001 14.53773909
   6.02176591  9.24742978 14.53773909
  13.02696390  9.24812547 14.53773909
   0.98193012  4.52017683  4.83760985
   7.98712811  4.52087252  4.83760985
   0.98117914 11.40363229  4.83760985
   7.98637713 11.40432798  4.83760985
   0.98193012  4.52017683  9.68767447
   7.98712811  4.52087252  9.68767447
   0.98117914 11.40363229  9.68767447
   7.98637713 11.40432798  9.68767447
   0.98193012  4.52017683 14.53773909
   7.98712811  4.52087252 14.53773909
   0.98117914 11.40363229 14.53773909
   7.98637713 11.40432798 14.53773909
   4.48438198  5.80558926  0.82078730
  11.48957997  5.80628495  0.82078730
   4.48363100 12.68904472  0.82078730
  11.48882899 12.68974041  0.82078730
   4.48438198  5.80558926  5.67085192
  11.48957997  5.80628495  5.67085192
   4.48363100 12.68904472  5.67085192
  11.48882899 12.68974041  5.67085192
   4.48438198  5.80558926 10.52091654
  11.48957997  5.80628495 10.52091654
   4.48363100 12.68904472 10.52091654
  11.48882899 12.68974041 10.52091654
   2.52006503  1.07856189  0.82078730
   9.52526302  1.07925758  0.82078730
   2.51931405  7.96201735  0.82078730
   9.52451204  7.96271304  0.82078730
   2.52006503  1.07856189  5.67085192
   9.52526302  1.07925758  5.67085192
   2.51931405  7.96201735  5.67085192
   9.52451204  7.96271304  5.67085192
   2.52006503  1.07856189 10.52091654
   9.52526302  1.07925758 10.52091654
   2.51931405  7.96201735 10.52091654
   9.52451204  7.96271304 10.52091654
   2.51966552  4.52025327  2.41254664
   9.52486351  4.52094896  2.41254664
   2.51891454 11.40370873  2.41254664
   9.52411253 11.40440442  2.41254664
   2.51966552  4.52025327  7.26261126
   9.52486351  4.52094896  7.26261126
   2.51891454 11.40370873  7.26261126
   9.52411253 11.40440442  7.26261126
   2.51966552  4.52025327 12.11267588
   9.52486351  4.52094896 12.11267588
   2.51891454 11.40370873 12.11267588
   9.52411253 11.40440442 12.11267588
   4.48478149  2.36389788  2.41254664
  11.48997948  2.36459357  2.41254664
   4.48403051  9.24735334  2.41254664
  11.48922850  9.24804903  2.41254664
   4.48478149  2.36389788  7.26261126
  11.48997948  2.36459357  7.26261126
   4.48403051  9.24735334  7.26261126
  11.48922850  9.24804903  7.26261126
   4.48478149  2.36389788 12.11267588
  11.48997948  2.36459357 12.11267588
   4.48403051  9.24735334 12.11267588
  11.48922850  9.24804903 12.11267588
   6.02210749  5.80575953  3.24585720
  13.02730548  5.80645522  3.24585720
   6.02135651 12.68921499  3.24585720
  13.02655450 12.68991068  3.24585720
   6.02210749  5.80575953  8.09592182
  13.02730548  5.80645522  8.09592182
   6.02135651 12.68921499  8.09592182
  13.02655450 12.68991068  8.09592182
   6.02210749  5.80575953 12.94598644
  13.02730548  5.80645522 12.94598644
   6.02135651 12.68921499 12.94598644
  13.02655450 12.68991068 12.94598644
   0.98233952  1.07839162  3.24585720
   7.98753751  1.07908731  3.24585720
   0.98158854  7.96184708  3.24585720
   7.98678653  7.96254277  3.24585720
   0.98233952  1.07839162  8.09592182
   7.98753751  1.07908731  8.09592182
   0.98158854  7.96184708  8.09592182
   7.98678653  7.96254277  8.09592182
   0.98233952  1.07839162 12.94598644
   7.98753751  1.07908731 12.94598644
   0.98158854  7.96184708 12.94598644
   7.98678653  7.96254277 12.94598644
   0.00000000  0.00000000  0.79725823
   7.00519799  0.00069569  0.79725823
  -0.00075098  6.88345546  0.79725823
   7.00444701  6.88415115  0.79725823
   0.00000000  0.00000000  5.64732285
   7.00519799  0.00069569  5.64732285
  -0.00075098  6.88345546  5.64732285
   7.00444701  6.88415115  5.64732285
   0.00000000  0.00000000 10.49738747
   7.00519799  0.00069569 10.49738747
  -0.00075098  6.88345546 10.49738747
   7.00444701  6.88415115 10.49738747
   3.50953518  0.00034853  3.22937383
  10.50779699  0.00104353  3.22217040
   3.50184802  6.88380331  3.22217040
  10.50704601  6.88449900  3.22217040
   3.50259900  0.00034785  8.07223502
  10.50779699  0.00104353  8.07223502
   3.50184802  6.88380331  8.07223502
  10.50704601  6.88449900  8.07223502
   3.50259900  0.00034785 12.92229964
  10.50779699  0.00104353 12.92229964
   3.50184802  6.88380331 12.92229964
  10.50704601  6.88449900 12.92229964
  -0.00037549  3.44172773  2.43625080
   7.00482250  3.44242342  2.43625080
  -0.00112647 10.32518319  2.43625080
   7.00407152 10.32587888  2.43625080
  -0.00037549  3.44172773  7.28631542
   7.00482250  3.44242342  7.28631542
  -0.00112647 10.32518319  7.28631542
   7.00407152 10.32587888  7.28631542
  -0.00037549  3.44172773 12.13638004
   7.00482250  3.44242342 12.13638004
  -0.00112647 10.32518319 12.13638004
   7.00407152 10.32587888 12.13638004
   3.50222350  3.44207558  0.01110645
  10.50742150  3.44277127  0.01110645
   3.50147253 10.32553104  0.01110645
  10.50667051 10.32622673  0.01110645
   3.50222350  3.44207558  4.86117107
  10.50742150  3.44277127  4.86117107
   3.50147253 10.32553104  4.86117107
  10.50667051 10.32622673  4.86117107
   3.50222350  3.44207558  9.71123569
  10.50742150  3.44277127  9.71123569
   3.50147253 10.32553104  9.71123569
  10.50667051 10.32622673  9.71123569
 


--------------------------------------------------------------------------------------------------------


 k-point  1 :   0.0000 0.0000 0.0000  plane waves:  105523
 k-point  2 :   0.5000-0.0000 0.0000  plane waves:  105722
 k-point  3 :   0.0000 0.5000 0.0000  plane waves:  105594
 k-point  4 :   0.5000 0.5000 0.0000  plane waves:  105596
 k-point  5 :   0.0000 0.0000 0.5000  plane waves:  105636
 k-point  6 :   0.5000-0.0000 0.5000  plane waves:  105608
 k-point  7 :   0.0000 0.5000 0.5000  plane waves:  105704
 k-point  8 :   0.5000 0.5000 0.5000  plane waves:  105564

 maximum and minimum number of plane-waves per node :     10604    10527

 maximum number of plane-waves:    105722
 maximum index in each direction: 
   IXMAX=   29   IYMAX=   28   IZMAX=   30
   IXMIN=  -29   IYMIN=  -29   IZMIN=  -30


 parallel 3D FFT for wavefunctions:
    minimum data exchange during FFTs selected (reduces bandwidth)
 parallel 3D FFT for charge:
    minimum data exchange during FFTs selected (reduces bandwidth)


 total amount of memory used by VASP MPI-rank0  1502421. kBytes
=======================================================================

   base      :      30000. kBytes
   nonl-proj :      48757. kBytes
   fftplans  :     217509. kBytes
   grid      :      89026. kBytes
   one-center:        233. kBytes
   wavefun   :    1116896. kBytes
 
     INWAV:  cpu time    0.0000: real time    0.0001
 Broyden mixing: mesh for mixing (old mesh)
   NGX = 59   NGY = 57   NGZ = 61
  (NGX  =240   NGY  =240   NGZ  =252)
  gives a total of 205143 points

 initial charge density was supplied:
 charge density of overlapping atoms calculated
 number of electron    1344.0000000 magnetization 
 keeping initial charge density in first step


--------------------------------------------------------------------------------------------------------


 Maximum index for augmentation-charges        24795 (set IRDMAX)


--------------------------------------------------------------------------------------------------------


 First call to EWALD:  gamma=   0.126
 Maximum number of real-space cells 3x 3x 3
 Maximum number of reciprocal cells 3x 3x 3

    FEWALD:  cpu time    0.0088: real time    0.0088


--------------------------------------- Iteration      1(   1)  ---------------------------------------


    POTLOK:  cpu time    1.0632: real time    1.0682
    SETDIJ:  cpu time    2.3466: real time    2.3534
     EDDAV:  cpu time  856.1962: real time  858.5797
       DOS:  cpu time    0.0066: real time    0.0066
    --------------------------------------------
      LOOP:  cpu time  859.6127: real time  862.0079

 eigenvalue-minimisations  : 12896
 total energy-change (2. order) : 0.1060505E+05  (-0.7422020E+05)
 number of electron    1344.0000000 magnetization 
 augmentation part     1344.0000000 magnetization 

 Free energy of the ion-electron system (eV)
  ---------------------------------------------------
  alpha Z        PSCENC =      4890.97834259
  Ewald energy   TEWEN  =    -98843.40604579
  -Hartree energ DENC   =    -25788.89870233
  -exchange      EXHF   =         0.00000000
  -V(xc)+E(xc)   XCENC  =      -889.86475677
  PAW double counting   =    106286.73805879  -101298.59693205
  entropy T*S    EENTRO =        -0.04315919
  eigenvalues    EBANDS =     14366.16178780
  atomic energy  EATOM  =    111881.97810035
  Solvation  Ediel_sol  =         0.00000000
  ---------------------------------------------------
  free energy    TOTEN  =     10605.04669340 eV

  energy without entropy =    10605.08985259  energy(sigma->0) =    10605.06827300


--------------------------------------------------------------------------------------------------------




--------------------------------------- Iteration      1(   2)  ---------------------------------------


     EDDAV:  cpu time  896.6552: real time  899.1092
       DOS:  cpu time    0.0065: real time    0.0065
    --------------------------------------------
      LOOP:  cpu time  896.6617: real time  899.1157

 eigenvalue-minimisations  : 13560
 total energy-change (2. order) :-0.1045399E+05  (-0.1002346E+05)
 number of electron    1344.0000000 magnetization 
 augmentation part     1344.0000000 magnetization 

 Free energy of the ion-electron system (eV)
  ---------------------------------------------------
  alpha Z        PSCENC =      4890.97834259
  Ewald energy   TEWEN  =    -98843.40604579
  -Hartree energ DENC   =    -25788.89870233
  -exchange      EXHF   =         0.00000000
  -V(xc)+E(xc)   XCENC  =      -889.86475677
  PAW double counting   =    106286.73805879  -101298.59693205
  entropy T*S    EENTRO =        -0.01223345
  eigenvalues    EBANDS =      3912.14284791
  atomic energy  EATOM  =    111881.97810035
  Solvation  Ediel_sol  =         0.00000000
  ---------------------------------------------------
  free energy    TOTEN  =       151.05867926 eV

  energy without entropy =      151.07091270  energy(sigma->0) =      151.06479598


--------------------------------------------------------------------------------------------------------




--------------------------------------- Iteration      1(   3)  ---------------------------------------


     EDDAV:  cpu time  942.0775: real time  944.5420
       DOS:  cpu time    0.0066: real time    0.0067
    --------------------------------------------
      LOOP:  cpu time  942.0841: real time  944.5486

 eigenvalue-minimisations  : 14408
 total energy-change (2. order) :-0.6689950E+03  (-0.6500491E+03)
 number of electron    1344.0000000 magnetization 
 augmentation part     1344.0000000 magnetization 

 Free energy of the ion-electron system (eV)
  ---------------------------------------------------
  alpha Z        PSCENC =      4890.97834259
  Ewald energy   TEWEN  =    -98843.40604579
  -Hartree energ DENC   =    -25788.89870233
  -exchange      EXHF   =         0.00000000
  -V(xc)+E(xc)   XCENC  =      -889.86475677
  PAW double counting   =    106286.73805879  -101298.59693205
  entropy T*S    EENTRO =        -0.00611262
  eigenvalues    EBANDS =      3243.14174864
  atomic energy  EATOM  =    111881.97810035
  Solvation  Ediel_sol  =         0.00000000
  ---------------------------------------------------
  free energy    TOTEN  =      -517.93629919 eV

  energy without entropy =     -517.93018657  energy(sigma->0) =     -517.93324288


--------------------------------------------------------------------------------------------------------




--------------------------------------- Iteration      1(   4)  ---------------------------------------


     EDDAV:  cpu time  914.6589: real time  917.0204
       DOS:  cpu time    0.0076: real time    0.0076
    --------------------------------------------
      LOOP:  cpu time  914.6664: real time  917.0280

 eigenvalue-minimisations  : 13976
 total energy-change (2. order) :-0.1747981E+02  (-0.1726324E+02)
 number of electron    1344.0000000 magnetization 
 augmentation part     1344.0000000 magnetization 

 Free energy of the ion-electron system (eV)
  ---------------------------------------------------
  alpha Z        PSCENC =      4890.97834259
  Ewald energy   TEWEN  =    -98843.40604579
  -Hartree energ DENC   =    -25788.89870233
  -exchange      EXHF   =         0.00000000
  -V(xc)+E(xc)   XCENC  =      -889.86475677
  PAW double counting   =    106286.73805879  -101298.59693205
  entropy T*S    EENTRO =        -0.00545069
  eigenvalues    EBANDS =      3225.66128090
  atomic energy  EATOM  =    111881.97810035
  Solvation  Ediel_sol  =         0.00000000
  ---------------------------------------------------
  free energy    TOTEN  =      -535.41610500 eV

  energy without entropy =     -535.41065431  energy(sigma->0) =     -535.41337965


--------------------------------------------------------------------------------------------------------




--------------------------------------- Iteration      1(   5)  ---------------------------------------


     EDDAV:  cpu time  934.8669: real time  937.3303
       DOS:  cpu time    0.0069: real time    0.0074
    CHARGE:  cpu time   15.5449: real time   15.5859
    MIXING:  cpu time    0.0296: real time    0.0297
    --------------------------------------------
      LOOP:  cpu time  950.4483: real time  952.9533

 eigenvalue-minimisations  : 14200
 total energy-change (2. order) :-0.2549413E+00  (-0.2540164E+00)
 number of electron    1344.0000022 magnetization 
 augmentation part      434.5274983 magnetization 

 Broyden mixing:
  rms(total) = 0.57805E+01    rms(broyden)= 0.57805E+01
  rms(prec ) = 0.61445E+01
  weight for this iteration     100.00

 Free energy of the ion-electron system (eV)
  ---------------------------------------------------
  alpha Z        PSCENC =      4890.97834259
  Ewald energy   TEWEN  =    -98843.40604579
  -Hartree energ DENC   =    -25788.89870233
  -exchange      EXHF   =         0.00000000
  -V(xc)+E(xc)   XCENC  =      -889.86475677
  PAW double counting   =    106286.73805879  -101298.59693205
  entropy T*S    EENTRO =        -0.00545864
  eigenvalues    EBANDS =      3225.40634756
  atomic energy  EATOM  =    111881.97810035
  Solvation  Ediel_sol  =         0.00000000
  ---------------------------------------------------
  free energy    TOTEN  =      -535.67104629 eV

  energy without entropy =     -535.66558765  energy(sigma->0) =     -535.66831697


--------------------------------------------------------------------------------------------------------




--------------------------------------- Iteration      1(   6)  ---------------------------------------


    POTLOK:  cpu time    0.9932: real time    0.9972
    SETDIJ:  cpu time    2.3065: real time    2.3127
     EDDAV:  cpu time  895.8383: real time  898.1041
       DOS:  cpu time    0.0070: real time    0.0070
    CHARGE:  cpu time   15.6803: real time   15.7186
    MIXING:  cpu time    0.0647: real time    0.0648
    --------------------------------------------
      LOOP:  cpu time  914.8900: real time  917.2043

 eigenvalue-minimisations  : 13608
 total energy-change (2. order) : 0.3068877E+02  (-0.1278187E+02)
 number of electron    1344.0000023 magnetization 
 augmentation part      453.9150306 magnetization 

 Broyden mixing:
  rms(total) = 0.43958E+01    rms(broyden)= 0.43958E+01
  rms(prec ) = 0.44034E+01
  weight for this iteration     100.00

 eigenvalues of (default mixing * dielectric matrix)
  average eigenvalue GAMMA=   1.1411
  1.1411

 Free energy of the ion-electron system (eV)
  ---------------------------------------------------
  alpha Z        PSCENC =      4890.97834259
  Ewald energy   TEWEN  =    -98843.40604579
  -Hartree energ DENC   =    -24779.45771057
  -exchange      EXHF   =         0.00000000
  -V(xc)+E(xc)   XCENC  =      -919.37618658
  PAW double counting   =    111560.56899652  -106627.65576464
  entropy T*S    EENTRO =        -0.01547914
  eigenvalues    EBANDS =      2331.40347243
  atomic energy  EATOM  =    111881.97810035
  Solvation  Ediel_sol  =         0.00000000
  ---------------------------------------------------
  free energy    TOTEN  =      -504.98227484 eV

  energy without entropy =     -504.96679569  energy(sigma->0) =     -504.97453526


--------------------------------------------------------------------------------------------------------




--------------------------------------- Iteration      1(   7)  ---------------------------------------


    POTLOK:  cpu time    1.0075: real time    1.0102
    SETDIJ:  cpu time    2.2357: real time    2.2408
     EDDAV:  cpu time  890.8679: real time  893.1903
       DOS:  cpu time    0.0065: real time    0.0065
    CHARGE:  cpu time   14.9204: real time   14.9517
    MIXING:  cpu time    0.0316: real time    0.0316
    --------------------------------------------
      LOOP:  cpu time  909.0695: real time  911.4311

 eigenvalue-minimisations  : 13512
 total energy-change (2. order) :-0.6754079E+00  (-0.1704005E+01)
 number of electron    1344.0000023 magnetization 
 augmentation part      454.6475288 magnetization 

 Broyden mixing:
  rms(total) = 0.22961E+01    rms(broyden)= 0.22961E+01
  rms(prec ) = 0.23046E+01
  weight for this iteration     100.00

 eigenvalues of (default mixing * dielectric matrix)
  average eigenvalue GAMMA=   1.6031
  0.9833  2.2229

 Free energy of the ion-electron system (eV)
  ---------------------------------------------------
  alpha Z        PSCENC =      4890.97834259
  Ewald energy   TEWEN  =    -98843.40604579
  -Hartree energ DENC   =    -24746.25082532
  -exchange      EXHF   =         0.00000000
  -V(xc)+E(xc)   XCENC  =      -919.75714562
  PAW double counting   =    115734.71910036  -110859.38811459
  entropy T*S    EENTRO =        -0.01575264
  eigenvalues    EBANDS =      2355.48465790
  atomic energy  EATOM  =    111881.97810035
  Solvation  Ediel_sol  =         0.00000000
  ---------------------------------------------------
  free energy    TOTEN  =      -505.65768277 eV

  energy without entropy =     -505.64193013  energy(sigma->0) =     -505.64980645


--------------------------------------------------------------------------------------------------------




--------------------------------------- Iteration      1(   8)  ---------------------------------------


    POTLOK:  cpu time    0.9963: real time    0.9987
    SETDIJ:  cpu time    2.3265: real time    2.3318
     EDDAV:  cpu time  915.0162: real time  917.2226
       DOS:  cpu time    0.0073: real time    0.0073
    CHARGE:  cpu time   13.9422: real time   13.9749
    MIXING:  cpu time    0.0340: real time    0.0341
    --------------------------------------------
      LOOP:  cpu time  932.3224: real time  934.5693

 eigenvalue-minimisations  : 13848
 total energy-change (2. order) : 0.4757800E+00  (-0.1221494E+00)
 number of electron    1344.0000023 magnetization 
 augmentation part      453.3481696 magnetization 

 Broyden mixing:
  rms(total) = 0.20683E+00    rms(broyden)= 0.20683E+00
  rms(prec ) = 0.22639E+00
  weight for this iteration     100.00

 eigenvalues of (default mixing * dielectric matrix)
  average eigenvalue GAMMA=   1.4618
  2.3925  0.9965  0.9965

 Free energy of the ion-electron system (eV)
  ---------------------------------------------------
  alpha Z        PSCENC =      4890.97834259
  Ewald energy   TEWEN  =    -98843.40604579
  -Hartree energ DENC   =    -24698.33957919
  -exchange      EXHF   =         0.00000000
  -V(xc)+E(xc)   XCENC  =      -921.39817761
  PAW double counting   =    121616.21382951  -116802.46513379
  entropy T*S    EENTRO =        -0.01460440
  eigenvalues    EBANDS =      2371.27136560
  atomic energy  EATOM  =    111881.97810035
  Solvation  Ediel_sol  =         0.00000000
  ---------------------------------------------------
  free energy    TOTEN  =      -505.18190274 eV

  energy without entropy =     -505.16729833  energy(sigma->0) =     -505.17460053


--------------------------------------------------------------------------------------------------------




--------------------------------------- Iteration      1(   9)  ---------------------------------------


    POTLOK:  cpu time    0.9896: real time    0.9925
    SETDIJ:  cpu time    2.3416: real time    2.3469
     EDDAV:  cpu time  895.8524: real time  898.1139
       DOS:  cpu time    0.0071: real time    0.0071
    CHARGE:  cpu time   13.8504: real time   13.8826
    MIXING:  cpu time    0.0341: real time    0.0342
    --------------------------------------------
      LOOP:  cpu time  913.0752: real time  915.3772

 eigenvalue-minimisations  : 13632
 total energy-change (2. order) : 0.5565538E-01  (-0.3132117E-01)
 number of electron    1344.0000023 magnetization 
 augmentation part      454.0088786 magnetization 

 Broyden mixing:
  rms(total) = 0.68603E-01    rms(broyden)= 0.68603E-01
  rms(prec ) = 0.70856E-01
  weight for this iteration     100.00

 eigenvalues of (default mixing * dielectric matrix)
  average eigenvalue GAMMA=   1.5152
  2.5095  0.9958  0.9958  1.5596

 Free energy of the ion-electron system (eV)
  ---------------------------------------------------
  alpha Z        PSCENC =      4890.97834259
  Ewald energy   TEWEN  =    -98843.40604579
  -Hartree energ DENC   =    -24655.52942431
  -exchange      EXHF   =         0.00000000
  -V(xc)+E(xc)   XCENC  =      -922.50062231
  PAW double counting   =    122237.77928853  -117429.41628139
  entropy T*S    EENTRO =        -0.01521651
  eigenvalues    EBANDS =      2335.00561149
  atomic energy  EATOM  =    111881.97810035
  Solvation  Ediel_sol  =         0.00000000
  ---------------------------------------------------
  free energy    TOTEN  =      -505.12624736 eV

  energy without entropy =     -505.11103085  energy(sigma->0) =     -505.11863910


--------------------------------------------------------------------------------------------------------




--------------------------------------- Iteration      1(  10)  ---------------------------------------


    POTLOK:  cpu time    1.0032: real time    1.0061
    SETDIJ:  cpu time    2.2920: real time    2.2972
     EDDAV:  cpu time  897.1936: real time  899.4320
       DOS:  cpu time    0.0076: real time    0.0082
    CHARGE:  cpu time   13.8858: real time   13.9250
    MIXING:  cpu time    0.0337: real time    0.0339
    --------------------------------------------
      LOOP:  cpu time  914.4160: real time  916.7025

 eigenvalue-minimisations  : 13664
 total energy-change (2. order) :-0.2126057E-02  (-0.4778888E-02)
 number of electron    1344.0000023 magnetization 
 augmentation part      454.1195730 magnetization 

 Broyden mixing:
  rms(total) = 0.29855E-01    rms(broyden)= 0.29855E-01
  rms(prec ) = 0.30782E-01
  weight for this iteration     100.00

 eigenvalues of (default mixing * dielectric matrix)
  average eigenvalue GAMMA=   1.6227
  2.5297  2.5297  1.0039  1.0039  1.0464

 Free energy of the ion-electron system (eV)
  ---------------------------------------------------
  alpha Z        PSCENC =      4890.97834259
  Ewald energy   TEWEN  =    -98843.40604579
  -Hartree energ DENC   =    -24655.62368041
  -exchange      EXHF   =         0.00000000
  -V(xc)+E(xc)   XCENC  =      -922.45876933
  PAW double counting   =    122272.97905174  -117465.65658810
  entropy T*S    EENTRO =        -0.01527445
  eigenvalues    EBANDS =      2336.09648998
  atomic energy  EATOM  =    111881.97810035
  Solvation  Ediel_sol  =         0.00000000
  ---------------------------------------------------
  free energy    TOTEN  =      -505.12837341 eV

  energy without entropy =     -505.11309897  energy(sigma->0) =     -505.12073619


--------------------------------------------------------------------------------------------------------




--------------------------------------- Iteration      1(  11)  ---------------------------------------


    POTLOK:  cpu time    1.0197: real time    1.0234
    SETDIJ:  cpu time    2.2918: real time    2.2983
     EDDAV:  cpu time  914.0971: real time  916.5529
       DOS:  cpu time    0.0073: real time    0.0073
    CHARGE:  cpu time   14.3088: real time   14.3488
    MIXING:  cpu time    0.0381: real time    0.0383
    --------------------------------------------
      LOOP:  cpu time  931.7629: real time  934.2689

 eigenvalue-minimisations  : 13840
 total energy-change (2. order) : 0.1264914E-03  (-0.3017786E-03)
 number of electron    1344.0000023 magnetization 
 augmentation part      454.0470068 magnetization 

 Broyden mixing:
  rms(total) = 0.78763E-02    rms(broyden)= 0.78761E-02
  rms(prec ) = 0.84736E-02
  weight for this iteration     100.00

 eigenvalues of (default mixing * dielectric matrix)
  average eigenvalue GAMMA=   1.5328
  2.4864  2.4371  1.2398  0.9868  1.0233  1.0233

 Free energy of the ion-electron system (eV)
  ---------------------------------------------------
  alpha Z        PSCENC =      4890.97834259
  Ewald energy   TEWEN  =    -98843.40604579
  -Hartree energ DENC   =    -24659.54124599
  -exchange      EXHF   =         0.00000000
  -V(xc)+E(xc)   XCENC  =      -922.39211598
  PAW double counting   =    122218.64569927  -117410.75477091
  entropy T*S    EENTRO =        -0.01520614
  eigenvalues    EBANDS =      2339.37899568
  atomic energy  EATOM  =    111881.97810035
  Solvation  Ediel_sol  =         0.00000000
  ---------------------------------------------------
  free energy    TOTEN  =      -505.12824692 eV

  energy without entropy =     -505.11304079  energy(sigma->0) =     -505.12064385


--------------------------------------------------------------------------------------------------------




--------------------------------------- Iteration      1(  12)  ---------------------------------------


    POTLOK:  cpu time    1.0700: real time    1.0736
    SETDIJ:  cpu time    2.3367: real time    2.3431
     EDDAV:  cpu time  898.6565: real time  901.1322
       DOS:  cpu time    0.0068: real time    0.0069
    CHARGE:  cpu time   14.3134: real time   14.3538
    MIXING:  cpu time    0.0360: real time    0.0360
    --------------------------------------------
      LOOP:  cpu time  916.4193: real time  918.9456

 eigenvalue-minimisations  : 13760
 total energy-change (2. order) : 0.4195605E-04  (-0.6221383E-04)
 number of electron    1344.0000023 magnetization 
 augmentation part      454.0710490 magnetization 

 Broyden mixing:
  rms(total) = 0.20274E-02    rms(broyden)= 0.20268E-02
  rms(prec ) = 0.21612E-02
  weight for this iteration     100.00

 eigenvalues of (default mixing * dielectric matrix)
  average eigenvalue GAMMA=   1.5103
  2.7292  2.3937  1.3771  1.0086  1.0086  1.1598  0.8947

 Free energy of the ion-electron system (eV)
  ---------------------------------------------------
  alpha Z        PSCENC =      4890.97834259
  Ewald energy   TEWEN  =    -98843.40604579
  -Hartree energ DENC   =    -24657.43522342
  -exchange      EXHF   =         0.00000000
  -V(xc)+E(xc)   XCENC  =      -922.45797691
  PAW double counting   =    122248.66612616  -117440.94673628
  entropy T*S    EENTRO =        -0.01522630
  eigenvalues    EBANDS =      2337.51043464
  atomic energy  EATOM  =    111881.97810035
  Solvation  Ediel_sol  =         0.00000000
  ---------------------------------------------------
  free energy    TOTEN  =      -505.12820497 eV

  energy without entropy =     -505.11297866  energy(sigma->0) =     -505.12059182


--------------------------------------------------------------------------------------------------------




--------------------------------------- Iteration      1(  13)  ---------------------------------------


    POTLOK:  cpu time    1.0199: real time    1.0231
    SETDIJ:  cpu time    2.3484: real time    2.3549
     EDDAV:  cpu time  950.1382: real time  952.6101
       DOS:  cpu time    0.0077: real time    0.0077
    CHARGE:  cpu time   14.5072: real time   14.5431
    MIXING:  cpu time    0.0366: real time    0.0367
    --------------------------------------------
      LOOP:  cpu time  968.0580: real time  970.5757

 eigenvalue-minimisations  : 14624
 total energy-change (2. order) :-0.7437484E-07  (-0.1444707E-05)
 number of electron    1344.0000023 magnetization 
 augmentation part      454.0696789 magnetization 

 Broyden mixing:
  rms(total) = 0.83357E-03    rms(broyden)= 0.83193E-03
  rms(prec ) = 0.89314E-03
  weight for this iteration     100.00

 eigenvalues of (default mixing * dielectric matrix)
  average eigenvalue GAMMA=   1.5020
  2.7886  2.3939  1.6534  1.3216  0.9873  0.9873  0.9422  0.9422

 Free energy of the ion-electron system (eV)
  ---------------------------------------------------
  alpha Z        PSCENC =      4890.97834259
  Ewald energy   TEWEN  =    -98843.40604579
  -Hartree energ DENC   =    -24657.50995354
  -exchange      EXHF   =         0.00000000
  -V(xc)+E(xc)   XCENC  =      -922.45893222
  PAW double counting   =    122251.81059693  -117444.09600213
  entropy T*S    EENTRO =        -0.01522346
  eigenvalues    EBANDS =      2337.59091224
  atomic energy  EATOM  =    111881.97810035
  Solvation  Ediel_sol  =         0.00000000
  ---------------------------------------------------
  free energy    TOTEN  =      -505.12820504 eV

  energy without entropy =     -505.11298158  energy(sigma->0) =     -505.12059331


--------------------------------------------------------------------------------------------------------




--------------------------------------- Iteration      1(  14)  ---------------------------------------


    POTLOK:  cpu time    0.9819: real time    0.9850
    SETDIJ:  cpu time    2.3535: real time    2.3589
     EDDAV:  cpu time  899.1401: real time  901.5048
       DOS:  cpu time    0.0073: real time    0.0074
    CHARGE:  cpu time   14.4567: real time   14.4976
    MIXING:  cpu time    0.0398: real time    0.0399
    --------------------------------------------
      LOOP:  cpu time  916.9793: real time  919.3936

 eigenvalue-minimisations  : 13712
 total energy-change (2. order) : 0.1126755E-05  (-0.3457868E-06)
 number of electron    1344.0000023 magnetization 
 augmentation part      454.0671986 magnetization 

 Broyden mixing:
  rms(total) = 0.33272E-03    rms(broyden)= 0.32860E-03
  rms(prec ) = 0.33832E-03
  weight for this iteration     100.00

 eigenvalues of (default mixing * dielectric matrix)
  average eigenvalue GAMMA=   1.5302
  2.7606  2.3907  2.3907  1.1451  1.1451  0.9882  0.9882  0.9815  0.9815

 Free energy of the ion-electron system (eV)
  ---------------------------------------------------
  alpha Z        PSCENC =      4890.97834259
  Ewald energy   TEWEN  =    -98843.40604579
  -Hartree energ DENC   =    -24657.65525651
  -exchange      EXHF   =         0.00000000
  -V(xc)+E(xc)   XCENC  =      -922.45412185
  PAW double counting   =    122252.07460460  -117444.34116285
  entropy T*S    EENTRO =        -0.01522234
  eigenvalues    EBANDS =      2337.71255789
  atomic energy  EATOM  =    111881.97810035
  Solvation  Ediel_sol  =         0.00000000
  ---------------------------------------------------
  free energy    TOTEN  =      -505.12820391 eV

  energy without entropy =     -505.11298157  energy(sigma->0) =     -505.12059274


--------------------------------------------------------------------------------------------------------




--------------------------------------- Iteration      1(  15)  ---------------------------------------


    POTLOK:  cpu time    1.0042: real time    1.0071
    SETDIJ:  cpu time    2.3076: real time    2.3141
     EDDAV:  cpu time  910.5216: real time  913.0678
       DOS:  cpu time    0.0074: real time    0.0077
    CHARGE:  cpu time   14.3076: real time   14.3417
    MIXING:  cpu time    0.0390: real time    0.0391
    --------------------------------------------
      LOOP:  cpu time  928.1874: real time  930.7774

 eigenvalue-minimisations  : 14008
 total energy-change (2. order) : 0.1507331E-05  (-0.2021578E-07)
 number of electron    1344.0000023 magnetization 
 augmentation part      454.0669099 magnetization 

 Broyden mixing:
  rms(total) = 0.12413E-03    rms(broyden)= 0.11262E-03
  rms(prec ) = 0.12017E-03
  weight for this iteration     100.00

 eigenvalues of (default mixing * dielectric matrix)
  average eigenvalue GAMMA=   1.5147
  2.7260  2.6176  2.3309  1.3282  1.3282  0.9870  0.9870  0.8972  0.9726  0.9726

 Free energy of the ion-electron system (eV)
  ---------------------------------------------------
  alpha Z        PSCENC =      4890.97834259
  Ewald energy   TEWEN  =    -98843.40604579
  -Hartree energ DENC   =    -24657.69659431
  -exchange      EXHF   =         0.00000000
  -V(xc)+E(xc)   XCENC  =      -922.45279081
  PAW double counting   =    122252.07098117  -117444.32445811
  entropy T*S    EENTRO =        -0.01522214
  eigenvalues    EBANDS =      2337.73948464
  atomic energy  EATOM  =    111881.97810035
  Solvation  Ediel_sol  =         0.00000000
  ---------------------------------------------------
  free energy    TOTEN  =      -505.12820241 eV

  energy without entropy =     -505.11298027  energy(sigma->0) =     -505.12059134


--------------------------------------------------------------------------------------------------------




--------------------------------------- Iteration      1(  16)  ---------------------------------------


    POTLOK:  cpu time    0.9898: real time    0.9935
    SETDIJ:  cpu time    2.3510: real time    2.3565
     EDDAV:  cpu time  826.4489: real time  828.4629
       DOS:  cpu time    0.0069: real time    0.0069
    --------------------------------------------
      LOOP:  cpu time  829.7965: real time  831.8198

 eigenvalue-minimisations  : 12448
 total energy-change (2. order) : 0.2342858E-08  (-0.6084684E-08)
 number of electron    1344.0000023 magnetization 
 augmentation part      454.0669099 magnetization 

 Free energy of the ion-electron system (eV)
  ---------------------------------------------------
  alpha Z        PSCENC =      4890.97834259
[...]
   0.267E-02 0.919E-04 -.314E+02   -.262E-02 -.356E-06 0.328E+02   -.105E-03 0.230E-04 -.136E+01   -.320E-07 -.368E-06 -.170E-04
   -.468E-02 0.113E-03 -.314E+02   0.490E-02 0.721E-06 0.328E+02   -.122E-03 -.366E-04 -.136E+01   -.420E-06 -.272E-05 -.167E-04
   -.160E-02 0.448E-04 -.315E+02   0.116E-02 0.115E-06 0.328E+02   0.646E-03 0.195E-03 -.136E+01   0.240E-06 0.356E-06 -.140E-04
   -.169E-02 0.916E-04 -.315E+02   0.117E-02 0.116E-06 0.328E+02   0.769E-03 0.733E-04 -.136E+01   0.363E-06 0.194E-05 -.124E-04
   0.185E-04 -.299E-04 -.315E+02   0.174E-03 0.249E-07 0.328E+02   -.816E-04 0.906E-04 -.136E+01   0.155E-06 -.316E-06 -.131E-04
   0.119E-03 0.497E-04 -.315E+02   0.168E-03 0.241E-07 0.328E+02   -.212E-03 -.107E-04 -.136E+01   -.880E-06 -.104E-05 -.123E-04
   0.108E+01 -.225E+00 -.302E+02   -.110E+01 0.235E+00 0.315E+02   -.408E-02 -.783E-02 -.136E+01   0.559E-06 0.447E-06 -.104E-04
   -.448E-01 -.774E-05 -.314E+02   0.448E-01 0.447E-05 0.328E+02   0.516E-03 -.135E-03 -.136E+01   -.208E-05 0.201E-05 -.107E-04
   0.147E-01 0.441E-04 -.314E+02   -.151E-01 -.209E-05 0.328E+02   0.632E-03 -.252E-03 -.136E+01   -.214E-05 0.730E-07 -.112E-04
   -.118E-01 0.191E-03 -.314E+02   0.117E-01 0.152E-05 0.328E+02   0.195E-03 -.209E-03 -.136E+01   0.231E-05 -.141E-05 -.114E-04
   0.290E-01 0.423E-03 -.315E+02   -.290E-01 -.290E-05 0.329E+02   0.288E-03 -.430E-03 -.136E+01   -.133E-06 -.116E-07 -.173E-04
   -.162E-01 -.414E-03 -.315E+02   0.158E-01 0.159E-05 0.328E+02   0.148E-02 -.868E-04 -.136E+01   -.100E-05 0.171E-05 -.177E-04
   0.709E-02 -.407E-04 -.315E+02   -.745E-02 -.949E-06 0.328E+02   0.265E-03 0.625E-04 -.136E+01   -.116E-05 -.872E-06 -.172E-04
   -.684E-02 -.323E-04 -.315E+02   0.664E-02 0.826E-06 0.328E+02   0.175E-03 -.356E-04 -.136E+01   0.201E-05 -.196E-05 -.174E-04
   0.286E-01 0.311E-03 -.315E+02   -.287E-01 -.287E-05 0.329E+02   0.390E-03 -.407E-03 -.136E+01   0.763E-06 0.117E-05 -.837E-05
   -.167E-01 -.437E-03 -.315E+02   0.157E-01 0.159E-05 0.328E+02   0.203E-02 0.948E-04 -.136E+01   -.174E-05 0.303E-05 -.880E-05
   0.715E-02 -.160E-05 -.315E+02   -.743E-02 -.946E-06 0.328E+02   0.178E-03 -.120E-03 -.136E+01   -.996E-06 -.147E-05 -.839E-05
   -.694E-02 0.201E-04 -.315E+02   0.662E-02 0.824E-06 0.328E+02   0.286E-03 -.515E-04 -.136E+01   0.177E-05 -.342E-05 -.791E-05
   -.300E-01 0.475E-01 0.315E+02   0.307E-01 -.489E-01 -.328E+02   0.108E-03 0.887E-03 0.136E+01   -.194E-06 0.120E-05 0.154E-04
   -.115E-01 -.311E-01 0.315E+02   0.113E-01 0.301E-01 -.329E+02   0.133E-02 0.166E-02 0.136E+01   0.166E-05 -.185E-05 0.155E-04
   -.312E-01 -.503E-01 0.315E+02   0.307E-01 0.489E-01 -.328E+02   0.772E-03 0.200E-02 0.136E+01   0.247E-06 -.251E-05 0.169E-04
   -.107E-01 0.290E-01 0.315E+02   0.113E-01 -.301E-01 -.329E+02   0.264E-05 0.138E-02 0.136E+01   -.412E-06 0.103E-05 0.157E-04
   0.924E-02 -.227E-02 0.315E+02   -.886E-02 0.208E-02 -.328E+02   -.505E-03 0.260E-03 0.136E+01   -.989E-07 0.906E-06 0.718E-05
   -.164E-01 -.221E-01 0.314E+02   0.166E-01 0.228E-01 -.328E+02   -.174E-03 -.162E-03 0.136E+01   0.735E-06 -.208E-05 0.625E-05
   0.903E-02 0.218E-02 0.315E+02   -.886E-02 -.208E-02 -.328E+02   -.199E-03 0.137E-03 0.136E+01   0.150E-05 -.310E-06 0.689E-05
   -.167E-01 0.228E-01 0.314E+02   0.166E-01 -.228E-01 -.328E+02   0.254E-03 -.941E-04 0.136E+01   -.776E-06 0.142E-05 0.781E-05
   -.724E-02 0.102E-01 0.314E+02   0.712E-02 -.102E-01 -.328E+02   0.333E-03 0.181E-03 0.136E+01   -.809E-06 0.129E-05 0.144E-04
   0.465E-02 0.138E-02 0.315E+02   -.477E-02 -.132E-02 -.328E+02   0.225E-03 -.744E-05 0.136E+01   0.112E-05 -.173E-05 0.146E-04
   -.710E-02 -.104E-01 0.314E+02   0.712E-02 0.102E-01 -.328E+02   0.984E-04 0.262E-03 0.136E+01   0.579E-06 -.989E-06 0.134E-04
   0.445E-02 -.153E-02 0.315E+02   -.477E-02 0.132E-02 -.328E+02   0.340E-03 0.186E-03 0.136E+01   -.994E-06 0.110E-05 0.135E-04
   0.307E-01 0.512E-01 0.314E+02   -.312E-01 -.507E-01 -.328E+02   0.130E-02 -.201E-02 0.136E+01   0.126E-06 -.227E-06 0.178E-04
   -.165E-01 0.381E-02 0.315E+02   0.163E-01 -.363E-02 -.328E+02   0.565E-03 -.278E-03 0.136E+01   -.914E-06 0.498E-07 0.175E-04
   0.311E-01 -.521E-01 0.314E+02   -.313E-01 0.507E-01 -.328E+02   -.126E-03 0.264E-02 0.136E+01   -.668E-06 -.344E-06 0.176E-04
   -.162E-01 -.365E-02 0.315E+02   0.163E-01 0.363E-02 -.328E+02   0.247E-03 0.455E-04 0.136E+01   0.899E-06 0.471E-07 0.184E-04
   0.619E-01 -.801E-01 0.315E+02   -.614E-01 0.767E-01 -.328E+02   -.141E-02 0.595E-02 0.136E+01   0.698E-07 0.419E-07 0.114E-04
   -.223E-01 -.279E-02 0.315E+02   0.221E-01 0.276E-02 -.328E+02   0.265E-03 -.818E-04 0.136E+01   -.122E-05 -.133E-05 0.102E-04
   0.615E-01 0.780E-01 0.315E+02   -.614E-01 -.767E-01 -.328E+02   -.196E-02 -.461E-02 0.136E+01   -.159E-05 0.581E-06 0.107E-04
   -.221E-01 0.276E-02 0.315E+02   0.221E-01 -.276E-02 -.328E+02   0.717E-04 -.853E-04 0.136E+01   0.127E-05 0.753E-06 0.964E-05
   0.888E-02 -.539E-02 0.314E+02   -.916E-02 0.535E-02 -.328E+02   0.298E-03 -.783E-04 0.136E+01   0.303E-06 -.185E-06 0.893E-05
   -.802E-02 -.926E-03 0.314E+02   0.776E-02 0.976E-03 -.328E+02   0.374E-03 -.111E-03 0.136E+01   -.590E-06 -.765E-06 0.966E-05
   0.906E-02 0.517E-02 0.314E+02   -.916E-02 -.535E-02 -.328E+02   0.131E-03 0.136E-03 0.136E+01   -.584E-06 0.353E-06 0.833E-05
   -.800E-02 0.783E-03 0.314E+02   0.776E-02 -.974E-03 -.328E+02   0.251E-03 0.542E-04 0.136E+01   0.784E-06 0.866E-06 0.898E-05
 -----------------------------------------------------------------------------------------------
   -.104E+00 -.976E-03 -.961E-01   -.397E-12 -.590E-12 0.469E-12   0.104E+00 0.978E-03 0.961E-01   -.614E-05 -.102E-05 -.467E-05
 
 
 POSITION                                       TOTAL-FORCE (eV/Angst)
 -----------------------------------------------------------------------------------
      6.02252      2.36397      4.83761         0.000564      0.000623      0.000269
     13.02771      2.36467      4.83761        -0.000201      0.000265      0.000240
      6.02177      9.24743      4.83761        -0.000164      0.000186     -0.000123
     13.02696      9.24813      4.83761        -0.000055      0.000012      0.000048
      6.02252      2.36397      9.68767         0.000026      0.000103     -0.000103
     13.02771      2.36467      9.68767        -0.000057      0.000071     -0.000114
      6.02177      9.24743      9.68767        -0.000035      0.000025     -0.000146
     13.02696      9.24813      9.68767        -0.000078      0.000033     -0.000090
      6.02252      2.36397     14.53774        -0.000186     -0.000102      0.000206
     13.02771      2.36467     14.53774        -0.000156      0.000433     -0.000039
      6.02177      9.24743     14.53774         0.000062      0.000035      0.000042
     13.02696      9.24813     14.53774        -0.000042     -0.000047     -0.000081
      0.98193      4.52018      4.83761         0.000218      0.000013      0.000123
      7.98713      4.52087      4.83761        -0.000084     -0.000119     -0.000097
      0.98118     11.40363      4.83761         0.000185     -0.000037     -0.000401
      7.98638     11.40433      4.83761        -0.000081      0.000373     -0.000095
      0.98193      4.52018      9.68767        -0.000033     -0.000072     -0.000138
      7.98713      4.52087      9.68767        -0.000060     -0.000121     -0.000051
      0.98118     11.40363      9.68767        -0.000007     -0.000026     -0.000051
      7.98638     11.40433      9.68767         0.000006     -0.000074     -0.000057
      0.98193      4.52018     14.53774        -0.000204     -0.000145      0.000042
      7.98713      4.52087     14.53774        -0.000108     -0.000212      0.000056
      0.98118     11.40363     14.53774         0.000295      0.000139      0.000386
      7.98638     11.40433     14.53774        -0.000072      0.000003     -0.000117
      4.48438      5.80559      0.82079        -0.000002      0.000099      0.000263
     11.48958      5.80628      0.82079        -0.000033     -0.000005      0.000111
      4.48363     12.68904      0.82079        -0.002433      0.001271      0.003757
     11.48883     12.68974      0.82079        -0.000776     -0.000138      0.000276
      4.48438      5.80559      5.67085        -0.000134     -0.000271     -0.000050
     11.48958      5.80628      5.67085         0.000037     -0.000013      0.000051
      4.48363     12.68904      5.67085         0.000889     -0.001860      0.007323
     11.48883     12.68974      5.67085        -0.000322     -0.000002      0.000061
      4.48438      5.80559     10.52092         0.000075      0.000106     -0.000054
     11.48958      5.80628     10.52092         0.000014      0.000040      0.000052
      4.48363     12.68904     10.52092        -0.000072      0.000048     -0.000246
     11.48883     12.68974     10.52092        -0.000120      0.000039     -0.000156
      2.52007      1.07856      0.82079         0.000301     -0.004116      0.007571
      9.52526      1.07926      0.82079        -0.000298     -0.000029     -0.000014
      2.51931      7.96202      0.82079        -0.000012     -0.000093      0.000162
      9.52451      7.96271      0.82079        -0.000040     -0.000101      0.000042
      2.52007      1.07856      5.67085        -0.001595      0.000267      0.001922
      9.52526      1.07926      5.67085        -0.000879     -0.000233      0.000147
      2.51931      7.96202      5.67085         0.000130      0.000585     -0.000162
      9.52451      7.96271      5.67085        -0.000037     -0.000022      0.000073
      2.52007      1.07856     10.52092        -0.000088     -0.000083     -0.000261
      9.52526      1.07926     10.52092        -0.000178     -0.000023     -0.000159
      2.51931      7.96202     10.52092        -0.000006     -0.000050     -0.000072
      9.52451      7.96271     10.52092        -0.000018     -0.000003      0.000029
      2.51967      4.52025      2.41255         0.000157     -0.000228      0.000270
      9.52486      4.52095      2.41255        -0.000276     -0.000014      0.000044
      2.51891     11.40371      2.41255         0.004110      0.010319      0.002359
      9.52411     11.40440      2.41255        -0.000123      0.000035      0.000108
      2.51967      4.52025      7.26261         0.000151     -0.000031     -0.000337
      9.52486      4.52095      7.26261        -0.000090     -0.000027     -0.000032
      2.51891     11.40371      7.26261         0.000104     -0.000107      0.000130
      9.52411     11.40440      7.26261        -0.000017      0.000001     -0.000041
      2.51967      4.52025     12.11268        -0.000177      0.000171     -0.000318
      9.52486      4.52095     12.11268        -0.000057      0.000015     -0.000028
      2.51891     11.40371     12.11268         0.000114     -0.000016     -0.000077
      9.52411     11.40440     12.11268        -0.000020     -0.000087     -0.000061
      4.48478      2.36390      2.41255        -0.002474     -0.002266     -0.001148
     11.48998      2.36459      2.41255        -0.000103      0.000072     -0.000038
      4.48403      9.24735      2.41255        -0.000041      0.000002      0.000179
     11.48923      9.24805      2.41255        -0.000147     -0.000003      0.000006
      4.48478      2.36390      7.26261         0.000133      0.000225      0.000197
     11.48998      2.36459      7.26261        -0.000050     -0.000066      0.000004
      4.48403      9.24735      7.26261         0.000030     -0.000008      0.000051
     11.48923      9.24805      7.26261        -0.000022     -0.000013      0.000003
      4.48478      2.36390     12.11268        -0.000079     -0.000005     -0.000122
     11.48998      2.36459     12.11268        -0.000136      0.000013     -0.000035
      4.48403      9.24735     12.11268         0.000034     -0.000071     -0.000260
     11.48923      9.24805     12.11268        -0.000079      0.000004     -0.000029
      6.02211      5.80576      3.24586        -0.000034     -0.000060     -0.000001
     13.02731      5.80646      3.24586         0.000033      0.000114      0.000073
      6.02136     12.68921      3.24586         0.007583     -0.006002     -0.002237
     13.02655     12.68991      3.24586         0.000167     -0.000135      0.000051
      6.02211      5.80576      8.09592        -0.000059     -0.000049     -0.000047
     13.02731      5.80646      8.09592        -0.000009     -0.000017      0.000015
      6.02136     12.68921      8.09592        -0.000268      0.000051     -0.000783
     13.02655     12.68991      8.09592        -0.000284     -0.000112      0.000225
      6.02211      5.80576     12.94599         0.000062      0.000003     -0.000005
     13.02731      5.80646     12.94599        -0.000037      0.000039     -0.000004
      6.02136     12.68921     12.94599         0.000250      0.000050     -0.000288
     13.02655     12.68991     12.94599        -0.000279     -0.000231     -0.000639
      0.98234      1.07839      3.24586         0.008195     -0.005673     -0.000903
      7.98754      1.07909      3.24586         0.000100      0.000020      0.000182
      0.98159      7.96185      3.24586         0.000062     -0.000048      0.000095
      7.98679      7.96254      3.24586        -0.000031      0.000008      0.000020
      0.98234      1.07839      8.09592         0.000257      0.000059     -0.000273
      7.98754      1.07909      8.09592        -0.000368     -0.000264     -0.000565
      0.98159      7.96185      8.09592         0.000017     -0.000037      0.000018
      7.98679      7.96254      8.09592        -0.000032      0.000035     -0.000013
      0.98234      1.07839     12.94599        -0.000333     -0.000017     -0.000747
      7.98754      1.07909     12.94599        -0.000325     -0.000135      0.000334
      0.98159      7.96185     12.94599        -0.000084     -0.000002      0.000019
      7.98679      7.96254     12.94599        -0.000046     -0.000013      0.000021
      0.00000      0.00000      0.79726         0.005131      0.001844      0.002490
      7.00520      0.00070      0.79726         0.000790      0.000596     -0.001316
     -0.00075      6.88346      0.79726         0.000079      0.000159     -0.000024
      7.00445      6.88415      0.79726        -0.000032      0.000277     -0.000172
      0.00000      0.00000      5.64732         0.001004      0.000826     -0.001505
      7.00520      0.00070      5.64732         0.005004      0.001971      0.002721
     -0.00075      6.88346      5.64732        -0.000054      0.000114     -0.000153
      7.00445      6.88415      5.64732         0.000101      0.000075     -0.000046
      0.00000      0.00000     10.49739         0.000204      0.000240     -0.000017
      7.00520      0.00070     10.49739         0.000252      0.000167     -0.000064
     -0.00075      6.88346     10.49739         0.000112      0.000060     -0.000052
      7.00445      6.88415     10.49739         0.000073      0.000038     -0.000015
      3.50954      0.00035      3.22937        -0.027773      0.002574     -0.030727
     10.50780      0.00104      3.22217         0.000471     -0.000136     -0.000005
      3.50185      6.88380      3.22217         0.000199     -0.000209     -0.000480
     10.50705      6.88450      3.22217         0.000089     -0.000018     -0.000036
      3.50260      0.00035      8.07224         0.000264     -0.000010      0.002429
     10.50780      0.00104      8.07224         0.001111     -0.000498      0.000414
      3.50185      6.88380      8.07224        -0.000100      0.000020      0.000321
     10.50705      6.88450      8.07224        -0.000028     -0.000069      0.000027
      3.50260      0.00035     12.92230         0.000259     -0.000098      0.002400
     10.50780      0.00104     12.92230         0.001102     -0.000337      0.000415
      3.50185      6.88380     12.92230        -0.000101     -0.000124      0.000323
     10.50705      6.88450     12.92230        -0.000028     -0.000034      0.000028
     -0.00038      3.44173      2.43625         0.000872     -0.000458     -0.000566
      7.00482      3.44242      2.43625         0.001166      0.000655     -0.000300
     -0.00113     10.32518      2.43625         0.000330      0.000558     -0.000049
      7.00407     10.32588      2.43625         0.000620      0.000288      0.000223
     -0.00038      3.44173      7.28632        -0.000131      0.000066      0.000049
      7.00482      3.44242      7.28632         0.000035      0.000504      0.000210
     -0.00113     10.32518      7.28632        -0.000033      0.000243     -0.000046
      7.00407     10.32588      7.28632         0.000135     -0.000086      0.000116
     -0.00038      3.44173     12.13638         0.000215      0.000140      0.000039
      7.00482      3.44242     12.13638         0.000110      0.000044     -0.000061
     -0.00113     10.32518     12.13638         0.000122      0.000040      0.000128
      7.00407     10.32588     12.13638         0.000018     -0.000017      0.000028
      3.50222      3.44208      0.01111         0.000754     -0.001448      0.002273
     10.50742      3.44277      0.01111         0.000338     -0.000103      0.000063
      3.50147     10.32553      0.01111        -0.000274      0.001199      0.001284
     10.50667     10.32623      0.01111         0.000272      0.000027      0.000005
      3.50222      3.44208      4.86117        -0.000883      0.002620      0.001674
     10.50742      3.44277      4.86117         0.000111     -0.000110      0.000058
      3.50147     10.32553      4.86117        -0.001813     -0.003403      0.000776
     10.50667     10.32623      4.86117         0.000101     -0.000087      0.000049
      3.50222      3.44208      9.71124         0.000022     -0.000121      0.000502
     10.50742      3.44277      9.71124         0.000116     -0.000063      0.000210
      3.50147     10.32553      9.71124         0.000028     -0.000042      0.000509
     10.50667     10.32623      9.71124         0.000019     -0.000136      0.000117
 -----------------------------------------------------------------------------------
    total drift:                                0.000000      0.000001      0.000000


--------------------------------------------------------------------------------------------------------



  FREE ENERGIE OF THE ION-ELECTRON SYSTEM (eV)
  ---------------------------------------------------
  free  energy   TOTEN  =      -505.12820240 eV

  energy  without entropy=     -505.11298048  energy(sigma->0) =     -505.12059144
 


--------------------------------------------------------------------------------------------------------


    POTLOK:  cpu time    2.7687: real time    2.7749


--------------------------------------------------------------------------------------------------------


     LOOP+:  cpu time16451.2648: real time16494.5761
    4ORBIT:  cpu time    0.0000: real time    0.0000

 total amount of memory used by VASP MPI-rank0  1502421. kBytes
=======================================================================

   base      :      30000. kBytes
   nonl-proj :      48757. kBytes
   fftplans  :     217509. kBytes
   grid      :      89026. kBytes
   one-center:        233. kBytes
   wavefun   :    1116896. kBytes
 
  
  
 General timing and accounting informations for this job:
 ========================================================
  
                  Total CPU time used (sec):    16654.100
                            User time (sec):    16640.677
                          System time (sec):       13.424
                         Elapsed time (sec):    16699.001
  
                   Maximum memory used (kb):     1856676.
                   Average memory used (kb):           0.
  
                          Minor page faults:      1276989
                          Major page faults:           11
                 Voluntary context switches:       164523
