 vasp.5.4.4.18Apr17-6-g9f103f2a35 (build Jul 30 2020 14:31:59) complex          
  
 executed on             LinuxIFC date 2020.11.04  04:57:33
 running on   20 total cores
 distrk:  each k-point on   20 cores,    1 groups
 distr:  one band on NCORES_PER_BAND=   1 cores,   20 groups


--------------------------------------------------------------------------------------------------------


 INCAR:
 POTCAR:    PAW_PBE Se 06Sep2000                  
 POTCAR:    PAW_PBE Ag 02Apr2005                  

 ----------------------------------------------------------------------------- 
|                                                                             |
|           W    W    AA    RRRRR   N    N  II  N    N   GGGG   !!!           |
|           W    W   A  A   R    R  NN   N  II  NN   N  G    G  !!!           |
|           W    W  A    A  R    R  N N  N  II  N N  N  G       !!!           |
|           W WW W  AAAAAA  RRRRR   N  N N  II  N  N N  G  GGG   !            |
|           WW  WW  A    A  R   R   N   NN  II  N   NN  G    G                |
|           W    W  A    A  R    R  N    N  II  N    N   GGGG   !!!           |
|                                                                             |
|      For optimal performance we recommend to set                            |
|        NCORE= 4 - approx SQRT( number of cores)                             |
|      NCORE specifies how many cores store one orbital (NPAR=cpu/NCORE).     |
|      This setting can  greatly improve the performance of VASP for DFT.     |
|      The default,   NCORE=1            might be grossly inefficient         |
|      on modern multi-core architectures or massively parallel machines.     |
|      Do your own testing !!!!                                               |
|      Unfortunately you need to use the default for GW and RPA calculations. |
|      (for HF NCORE is supported but not extensively tested yet)             |
|                                                                             |
 ----------------------------------------------------------------------------- 

 POTCAR:    PAW_PBE Se 06Sep2000                  
   VRHFIN =Se: s2p4                                                             
   LEXCH  = PE                                                                  
   EATOM  =   257.1286 eV,   18.8984 Ry                                         
                                                                                
   TITEL  = PAW_PBE Se 06Sep2000                                                
   LULTRA =        F    use ultrasoft PP ?                                      
   IUNSCR =        1    unscreen: 0-lin 1-nonlin 2-no                           
   RPACOR =    1.900    partial core radius                                     
   POMASS =   78.960; ZVAL   =    6.000    mass and valenz                      
   RCORE  =    2.100    outmost cutoff radius                                   
   RWIGS  =    2.200; RWIGS  =    1.164    wigner-seitz radius (au A)           
   ENMAX  =  211.555; ENMIN  =  158.666 eV                                      
   ICORE  =        3    local potential                                         
   LCOR   =        T    correct aug charges                                     
   LPAW   =        T    paw PP                                                  
   EAUG   =  446.842                                                            
   DEXC   =    0.000                                                            
   RMAX   =    2.147    core radius for proj-oper                               
   RAUG   =    1.300    factor for augmentation sphere                          
   RDEP   =    2.177    radius for radial grids                                 
   RDEPT  =    1.928    core radius for aug-charge                              
                                                                                
   Atomic configuration                                                         
   10 entries                                                                   
     n  l   j            E        occ.                                          
     1  0  0.50    -12503.4787   2.0000                                         
     2  0  0.50     -1606.9547   2.0000                                         
     2  1  1.50     -1413.3140   6.0000                                         
     3  0  0.50      -213.4885   2.0000                                         
     3  1  1.50      -152.9538   6.0000                                         
     3  2  2.50       -53.1221  10.0000                                         
     4  0  0.50       -17.2865   2.0000                                         
     4  1  0.50        -6.5110   4.0000                                         
     4  2  2.50        -6.8029   0.0000                                         
     4  3  2.50        -6.8029   0.0000                                         
   Description                                                                  
     l       E           TYP  RCUT    TYP  RCUT                                 
     0    -17.2865377     23  2.100                                             
     0    -15.3094411     23  2.100                                             
     1     -6.5110275     23  2.100                                             
     1     -0.0695192     23  2.100                                             
     2     -6.8029130     23  2.100                                             
     3     -1.3605826      7  2.100                                             
  local pseudopotential read in
  partial core-charges read in
  partial kinetic energy density read in
  atomic valenz-charges read in
  non local Contribution for L=           0  read in
    real space projection operators read in
  non local Contribution for L=           0  read in
    real space projection operators read in
  non local Contribution for L=           1  read in
    real space projection operators read in
  non local Contribution for L=           1  read in
    real space projection operators read in
  non local Contribution for L=           2  read in
    real space projection operators read in
    PAW grid and wavefunctions read in
 
   number of l-projection  operators is LMAX  =           5
   number of lm-projection operators is LMMAX =          13
 
 POTCAR:    PAW_PBE Ag 02Apr2005                  
   VRHFIN =Ag : s1 d10                                                          
   LEXCH  = PE                                                                  
   EATOM  =  1037.2675 eV,   76.2370 Ry                                         
                                                                                
   TITEL  = PAW_PBE Ag 02Apr2005                                                
   LULTRA =        F    use ultrasoft PP ?                                      
   IUNSCR =        1    unscreen: 0-lin 1-nonlin 2-no                           
   RPACOR =    2.000    partial core radius                                     
   POMASS =  107.868; ZVAL   =   11.000    mass and valenz                      
   RCORE  =    2.500    outmost cutoff radius                                   
   RWIGS  =    2.840; RWIGS  =    1.503    wigner-seitz radius (au A)           
   ENMAX  =  249.844; ENMIN  =  187.383 eV                                      
   ICORE  =        3    local potential                                         
   LCOR   =        T    correct aug charges                                     
   LPAW   =        T    paw PP                                                  
   EAUG   =  412.496                                                            
   DEXC   =    0.000                                                            
   RMAX   =    2.560    core radius for proj-oper                               
   RAUG   =    1.300    factor for augmentation sphere                          
   RDEP   =    2.576    radius for radial grids                                 
   RDEPT  =    2.072    core radius for aug-charge                              
                                                                                
   Atomic configuration                                                         
   12 entries                                                                   
     n  l   j            E        occ.                                          
     1  0  0.50    -25324.9161   2.0000                                         
     2  0  0.50     -3728.5341   2.0000                                         
     2  1  1.50     -3344.0404   6.0000                                         
     3  0  0.50      -683.5581   2.0000                                         
     3  1  1.50      -557.3225   6.0000                                         
     3  2  2.50      -358.3853  10.0000                                         
     4  0  0.50       -95.0341   2.0000                                         
     4  1  1.50       -58.5511   6.0000                                         
     4  2  2.50        -7.4440  10.0000                                         
     5  0  0.50        -4.4045   1.0000                                         
     5  1  0.50        -1.3606   0.0000                                         
     4  3  2.50        -1.3606   0.0000                                         
   Description                                                                  
     l       E           TYP  RCUT    TYP  RCUT                                 
     2     -7.4439781     23  2.400                                             
     2     -8.8045607     23  2.400                                             
     0     -4.4044681     23  2.400                                             
     0      1.9520038     23  2.400                                             
     1     -1.3605826     23  2.500                                             
     1     27.2116520     23  2.500                                             
     3     -4.0817478     23  2.400                                             
  local pseudopotential read in
  partial core-charges read in
  partial kinetic energy density read in
  atomic valenz-charges read in
  non local Contribution for L=           2  read in
    real space projection operators read in
  non local Contribution for L=           2  read in
    real space projection operators read in
  non local Contribution for L=           0  read in
    real space projection operators read in
  non local Contribution for L=           0  read in
    real space projection operators read in
  non local Contribution for L=           1  read in
    real space projection operators read in
  non local Contribution for L=           1  read in
    real space projection operators read in
    PAW grid and wavefunctions read in
 
   number of l-projection  operators is LMAX  =           6
   number of lm-projection operators is LMMAX =          18
 

 ----------------------------------------------------------------------------- 
|                                                                             |
|  ADVICE TO THIS USER RUNNING 'VASP/VAMP'   (HEAR YOUR MASTER'S VOICE ...):  |
|                                                                             |
|      You enforced a specific xc-type in the INCAR file,                     |
|      a different type was found on the POTCAR file                          |
|          I HOPE YOU KNOW, WHAT YOU ARE  DOING                               |
|                                                                             |
 ----------------------------------------------------------------------------- 

  PAW_PBE Se 06Sep2000                  :
 energy of atom  1       EATOM= -257.1286
 kinetic energy error for atom=    0.0005 (will be added to EATOM!!)
  PAW_PBE Ag 02Apr2005                  :
 energy of atom  2       EATOM=-1037.2675
 kinetic energy error for atom=    0.0011 (will be added to EATOM!!)
 
 
 POSCAR: # Compound: Se4Ag8. Old comment: Ag2Se p
  positions in direct lattice
  No initial velocities read in
 exchange correlation table for  LEXCH =       14
   RHO(1)=    0.500       N(1)  =     2000
   RHO(2)=  100.500       N(2)  =     4000
 


--------------------------------------------------------------------------------------------------------


 ion  position               nearest neighbor table
   1  0.321  0.248  0.157-   6 2.62   5 2.62   9 2.71  12 2.72  12 2.77  10 2.83   8 2.92
   2  0.179  0.748  0.343-   5 2.62   6 2.62  10 2.71  11 2.72  11 2.77   9 2.83   7 2.92
   3  0.679  0.752  0.843-   8 2.62   7 2.62  11 2.71  10 2.72  10 2.77  12 2.83   6 2.92
   4  0.821  0.252  0.657-   7 2.62   8 2.62  12 2.71   9 2.72   9 2.77  11 2.83   5 2.92
   5  0.767  0.022  0.340-   2 2.62   1 2.62   7 2.82   4 2.92  10 3.01  12 3.01  11 3.04   9 3.07

   6  0.733  0.522  0.160-   1 2.62   2 2.62   8 2.82   3 2.92   9 3.01  11 3.01  12 3.04  10 3.07

   7  0.233  0.978  0.660-   4 2.62   3 2.62   5 2.82   2 2.92  12 3.01  10 3.01   9 3.04  11 3.07

   8  0.267  0.478  0.840-   3 2.62   4 2.62   6 2.82   1 2.92  11 3.01   9 3.01  10 3.04  12 3.07

   9  0.224  0.361  0.467-   1 2.71   4 2.72   4 2.77   2 2.83  11 2.90   6 3.01   8 3.01  11 3.03
                             7 3.04   5 3.07
  10  0.276  0.861  0.033-   2 2.71   3 2.72   3 2.77   1 2.83  12 2.90   5 3.01   7 3.01  12 3.03
                             8 3.04   6 3.07
  11  0.776  0.639  0.533-   3 2.71   2 2.72   2 2.77   4 2.83   9 2.90   8 3.01   6 3.01   9 3.03
                             5 3.04   7 3.07
  12  0.724  0.139  0.967-   4 2.71   1 2.72   1 2.77   3 2.83  10 2.90   7 3.01   5 3.01  10 3.03
                             6 3.04   8 3.07
 
  LATTYP: Found a simple monoclinic cell.
 ALAT       =     7.9598479568
 B/A-ratio  =     0.8652905291
 C/A-ratio  =     1.9138015458
 COS(beta)  =    -0.9607173428
  
  Lattice vectors:
  
 A1 = (  -2.3028649100,   0.0000000000,  -7.6194483200)
 A2 = (   0.0000000000,  -6.8875810500,   0.0000000000)
 A3 = (   0.1871440700,   0.0000000000,  15.2324197500)


Analysis of symmetry for initial positions (statically):
=====================================================================
 Subroutine PRICEL returns:
 Original cell was already a primitive cell.
 

 Routine SETGRP: Setting up the symmetry group for a 
 simple monoclinic supercell.


 Subroutine GETGRP returns: Found  4 space group operations
 (whereof  2 operations were pure point group operations)
 out of a pool of  4 trial point group operations.


The static configuration has the point symmetry S_2 .
 The point group associated with its full space group is C_2h.


Analysis of symmetry for dynamics (positions and initial velocities):
=====================================================================
 Subroutine PRICEL returns:
 Original cell was already a primitive cell.
 

 Routine SETGRP: Setting up the symmetry group for a 
 simple monoclinic supercell.


 Subroutine GETGRP returns: Found  4 space group operations
 (whereof  2 operations were pure point group operations)
 out of a pool of  4 trial point group operations.


The dynamic configuration has the point symmetry S_2 .
 The point group associated with its full space group is C_2h.


 Subroutine INISYM returns: Found  4 space group operations
 (whereof  2 operations are pure point group operations),
 and found     1 'primitive' translations

 
 
 KPOINTS: # No comment                            

Automatic generation of k-mesh.
Space group operators:
 irot       det(A)        alpha          n_x          n_y          n_z        tau_x        tau_y        tau_z
    1     1.000000     0.000001     1.000000     0.000000     0.000000     0.000000     0.000000     0.000000
    2    -1.000000     0.000001     1.000000     0.000000     0.000000     0.000000     0.000000     0.000000
    3     1.000000   179.999999     0.000000     1.000000     0.000000    -0.500000    -0.500000    -0.500000
    4    -1.000000   179.999999     0.000000     1.000000     0.000000    -0.500000    -0.500000    -0.500000
 
 Subroutine IBZKPT returns following result:
 ===========================================
 
 Found     42 irreducible k-points:
 
 Following reciprocal coordinates:
            Coordinates               Weight
  0.000000  0.000000  0.000000      1.000000
  0.166667  0.000000  0.000000      2.000000
  0.333333  0.000000  0.000000      2.000000
  0.500000  0.000000  0.000000      1.000000
  0.000000  0.250000  0.000000      2.000000
  0.166667  0.250000  0.000000      4.000000
  0.333333  0.250000  0.000000      4.000000
  0.500000  0.250000  0.000000      2.000000
  0.000000  0.500000  0.000000      1.000000
  0.166667  0.500000  0.000000      2.000000
  0.333333  0.500000  0.000000      2.000000
  0.500000  0.500000  0.000000      1.000000
 -0.000000  0.000000  0.250000      2.000000
  0.166667  0.000000  0.250000      2.000000
  0.333333  0.000000  0.250000      2.000000
  0.500000  0.000000  0.250000      2.000000
 -0.333333  0.000000  0.250000      2.000000
 -0.166667  0.000000  0.250000      2.000000
 -0.000000  0.250000  0.250000      4.000000
  0.166667  0.250000  0.250000      4.000000
  0.333333  0.250000  0.250000      4.000000
  0.500000  0.250000  0.250000      4.000000
 -0.333333  0.250000  0.250000      4.000000
 -0.166667  0.250000  0.250000      4.000000
 -0.000000  0.500000  0.250000      2.000000
  0.166667  0.500000  0.250000      2.000000
  0.333333  0.500000  0.250000      2.000000
  0.500000  0.500000  0.250000      2.000000
 -0.333333  0.500000  0.250000      2.000000
 -0.166667  0.500000  0.250000      2.000000
 -0.000000  0.000000  0.500000      1.000000
  0.166667  0.000000  0.500000      2.000000
  0.333333  0.000000  0.500000      2.000000
  0.500000  0.000000  0.500000      1.000000
 -0.000000  0.250000  0.500000      2.000000
  0.166667  0.250000  0.500000      4.000000
  0.333333  0.250000  0.500000      4.000000
  0.500000  0.250000  0.500000      2.000000
 -0.000000  0.500000  0.500000      1.000000
  0.166667  0.500000  0.500000      2.000000
  0.333333  0.500000  0.500000      2.000000
  0.500000  0.500000  0.500000      1.000000
 
 Following cartesian coordinates:
            Coordinates               Weight
  0.000000  0.000000  0.000000      1.000000
  0.037704  0.000000  0.010478      2.000000
  0.075408  0.000000  0.020957      2.000000
  0.113112  0.000000  0.031435      1.000000
  0.000000  0.036297  0.000000      2.000000
  0.037704  0.036297  0.010478      4.000000
  0.075408  0.036297  0.020957      4.000000
  0.113112  0.036297  0.031435      2.000000
  0.000000  0.072594  0.000000      1.000000
  0.037704  0.072594  0.010478      2.000000
  0.075408  0.072594  0.020957      2.000000
  0.113112  0.072594  0.031435      1.000000
 -0.000048  0.000000  0.032825      2.000000
  0.037656  0.000000  0.043304      2.000000
  0.075360  0.000000  0.053782      2.000000
  0.113064  0.000000  0.064260      2.000000
 -0.075456  0.000000  0.011869      2.000000
 -0.037752  0.000000  0.022347      2.000000
 -0.000048  0.036297  0.032825      4.000000
  0.037656  0.036297  0.043304      4.000000
  0.075360  0.036297  0.053782      4.000000
  0.113064  0.036297  0.064260      4.000000
 -0.075456  0.036297  0.011869      4.000000
 -0.037752  0.036297  0.022347      4.000000
 -0.000048  0.072594  0.032825      2.000000
  0.037656  0.072594  0.043304      2.000000
  0.075360  0.072594  0.053782      2.000000
  0.113064  0.072594  0.064260      2.000000
 -0.075456  0.072594  0.011869      2.000000
 -0.037752  0.072594  0.022347      2.000000
 -0.000096  0.000000  0.065651      1.000000
  0.037608  0.000000  0.076129      2.000000
  0.075312  0.000000  0.086607      2.000000
  0.113016  0.000000  0.097086      1.000000
 -0.000096  0.036297  0.065651      2.000000
  0.037608  0.036297  0.076129      4.000000
  0.075312  0.036297  0.086607      4.000000
  0.113016  0.036297  0.097086      2.000000
 -0.000096  0.072594  0.065651      1.000000
  0.037608  0.072594  0.076129      2.000000
  0.075312  0.072594  0.086607      2.000000
  0.113016  0.072594  0.097086      1.000000
 
 
 Subroutine IBZKPT_HF returns following result:
 ==============================================
 
 Found     96 k-points in 1st BZ
 the following     96 k-points will be used (e.g. in the exchange kernel)
 Following reciprocal coordinates:   # in IRBZ
  0.000000  0.000000  0.000000    0.01041667   1 t-inv F
  0.166667  0.000000  0.000000    0.01041667   2 t-inv F
  0.333333  0.000000  0.000000    0.01041667   3 t-inv F
  0.500000  0.000000  0.000000    0.01041667   4 t-inv F
  0.000000  0.250000  0.000000    0.01041667   5 t-inv F
  0.166667  0.250000  0.000000    0.01041667   6 t-inv F
  0.333333  0.250000  0.000000    0.01041667   7 t-inv F
  0.500000  0.250000  0.000000    0.01041667   8 t-inv F
  0.000000  0.500000  0.000000    0.01041667   9 t-inv F
  0.166667  0.500000  0.000000    0.01041667  10 t-inv F
  0.333333  0.500000  0.000000    0.01041667  11 t-inv F
  0.500000  0.500000  0.000000    0.01041667  12 t-inv F
 -0.000000  0.000000  0.250000    0.01041667  13 t-inv F
  0.166667  0.000000  0.250000    0.01041667  14 t-inv F
  0.333333  0.000000  0.250000    0.01041667  15 t-inv F
  0.500000  0.000000  0.250000    0.01041667  16 t-inv F
 -0.333333  0.000000  0.250000    0.01041667  17 t-inv F
 -0.166667  0.000000  0.250000    0.01041667  18 t-inv F
 -0.000000  0.250000  0.250000    0.01041667  19 t-inv F
  0.166667  0.250000  0.250000    0.01041667  20 t-inv F
  0.333333  0.250000  0.250000    0.01041667  21 t-inv F
  0.500000  0.250000  0.250000    0.01041667  22 t-inv F
 -0.333333  0.250000  0.250000    0.01041667  23 t-inv F
 -0.166667  0.250000  0.250000    0.01041667  24 t-inv F
 -0.000000  0.500000  0.250000    0.01041667  25 t-inv F
  0.166667  0.500000  0.250000    0.01041667  26 t-inv F
  0.333333  0.500000  0.250000    0.01041667  27 t-inv F
  0.500000  0.500000  0.250000    0.01041667  28 t-inv F
 -0.333333  0.500000  0.250000    0.01041667  29 t-inv F
 -0.166667  0.500000  0.250000    0.01041667  30 t-inv F
 -0.000000  0.000000  0.500000    0.01041667  31 t-inv F
  0.166667  0.000000  0.500000    0.01041667  32 t-inv F
  0.333333  0.000000  0.500000    0.01041667  33 t-inv F
  0.500000  0.000000  0.500000    0.01041667  34 t-inv F
 -0.000000  0.250000  0.500000    0.01041667  35 t-inv F
  0.166667  0.250000  0.500000    0.01041667  36 t-inv F
  0.333333  0.250000  0.500000    0.01041667  37 t-inv F
  0.500000  0.250000  0.500000    0.01041667  38 t-inv F
 -0.000000  0.500000  0.500000    0.01041667  39 t-inv F
  0.166667  0.500000  0.500000    0.01041667  40 t-inv F
  0.333333  0.500000  0.500000    0.01041667  41 t-inv F
  0.500000  0.500000  0.500000    0.01041667  42 t-inv F
 -0.166667  0.000000  0.000000    0.01041667   2 t-inv F
 -0.333333  0.000000  0.000000    0.01041667   3 t-inv F
  0.000000 -0.250000  0.000000    0.01041667   5 t-inv F
 -0.166667 -0.250000  0.000000    0.01041667   6 t-inv F
 -0.166667  0.250000  0.000000    0.01041667   6 t-inv F
  0.166667 -0.250000  0.000000    0.01041667   6 t-inv F
 -0.333333 -0.250000  0.000000    0.01041667   7 t-inv F
 -0.333333  0.250000  0.000000    0.01041667   7 t-inv F
  0.333333 -0.250000  0.000000    0.01041667   7 t-inv F
 -0.500000 -0.250000 -0.000000    0.01041667   8 t-inv F
 -0.166667 -0.500000  0.000000    0.01041667  10 t-inv F
 -0.333333 -0.500000  0.000000    0.01041667  11 t-inv F
  0.000000  0.000000 -0.250000    0.01041667  13 t-inv F
 -0.166667  0.000000 -0.250000    0.01041667  14 t-inv F
 -0.333333  0.000000 -0.250000    0.01041667  15 t-inv F
 -0.500000  0.000000 -0.250000    0.01041667  16 t-inv F
  0.333333  0.000000 -0.250000    0.01041667  17 t-inv F
  0.166667  0.000000 -0.250000    0.01041667  18 t-inv F
  0.000000 -0.250000 -0.250000    0.01041667  19 t-inv F
  0.000000  0.250000 -0.250000    0.01041667  19 t-inv F
 -0.000000 -0.250000  0.250000    0.01041667  19 t-inv F
 -0.166667 -0.250000 -0.250000    0.01041667  20 t-inv F
 -0.166667  0.250000 -0.250000    0.01041667  20 t-inv F
  0.166667 -0.250000  0.250000    0.01041667  20 t-inv F
 -0.333333 -0.250000 -0.250000    0.01041667  21 t-inv F
 -0.333333  0.250000 -0.250000    0.01041667  21 t-inv F
  0.333333 -0.250000  0.250000    0.01041667  21 t-inv F
 -0.500000 -0.250000 -0.250000    0.01041667  22 t-inv F
 -0.500000  0.250000 -0.250000    0.01041667  22 t-inv F
  0.500000 -0.250000  0.250000    0.01041667  22 t-inv F
  0.333333 -0.250000 -0.250000    0.01041667  23 t-inv F
  0.333333  0.250000 -0.250000    0.01041667  23 t-inv F
 -0.333333 -0.250000  0.250000    0.01041667  23 t-inv F
  0.166667 -0.250000 -0.250000    0.01041667  24 t-inv F
  0.166667  0.250000 -0.250000    0.01041667  24 t-inv F
 -0.166667 -0.250000  0.250000    0.01041667  24 t-inv F
  0.000000 -0.500000 -0.250000    0.01041667  25 t-inv F
 -0.166667 -0.500000 -0.250000    0.01041667  26 t-inv F
 -0.333333 -0.500000 -0.250000    0.01041667  27 t-inv F
 -0.500000 -0.500000 -0.250000    0.01041667  28 t-inv F
  0.333333 -0.500000 -0.250000    0.01041667  29 t-inv F
  0.166667 -0.500000 -0.250000    0.01041667  30 t-inv F
 -0.166667  0.000000 -0.500000    0.01041667  32 t-inv F
 -0.333333  0.000000 -0.500000    0.01041667  33 t-inv F
  0.000000 -0.250000 -0.500000    0.01041667  35 t-inv F
 -0.166667 -0.250000 -0.500000    0.01041667  36 t-inv F
 -0.166667  0.250000 -0.500000    0.01041667  36 t-inv F
  0.166667 -0.250000  0.500000    0.01041667  36 t-inv F
 -0.333333 -0.250000 -0.500000    0.01041667  37 t-inv F
 -0.333333  0.250000 -0.500000    0.01041667  37 t-inv F
  0.333333 -0.250000  0.500000    0.01041667  37 t-inv F
 -0.500000 -0.250000 -0.500000    0.01041667  38 t-inv F
 -0.166667 -0.500000 -0.500000    0.01041667  40 t-inv F
 -0.333333 -0.500000 -0.500000    0.01041667  41 t-inv F


--------------------------------------------------------------------------------------------------------




 Dimension of arrays:
   k-points           NKPTS =     42   k-points in BZ     NKDIM =     42   number of bands    NBANDS=     80
   number of dos      NEDOS =    301   number of ions     NIONS =     12
   non local maximal  LDIM  =      6   non local SUM 2l+1 LMDIM =     18
   total plane-waves  NPLWV = 168000
   max r-space proj   IRMAX =      1   max aug-charges    IRDMAX= 285273
   dimension x,y,z NGX =    40 NGY =   60 NGZ =   70
   dimension x,y,z NGXF=    80 NGYF=  120 NGZF=  140
   support grid    NGXF=   160 NGYF=  240 NGZF=  280
   ions per type =               4   8
   NGX,Y,Z   is equivalent  to a cutoff of  15.05, 14.48, 14.73 a.u.
   NGXF,Y,Z  is equivalent  to a cutoff of  30.10, 28.96, 29.46 a.u.

 SYSTEM =  unknown system                          
 POSCAR =  # Compound: Se4Ag8. Old comment: Ag2Se p

 Startparameter for this run:
   NWRITE =      2    write-flag & timer
   PREC   = accura    normal or accurate (medium, high low for compatibility)
   ISTART =      0    job   : 0-new  1-cont  2-samecut
   ICHARG =      2    charge: 1-file 2-atom 10-const
   ISPIN  =      1    spin polarized calculation?
   LNONCOLLINEAR =      F non collinear calculations
   LSORBIT =      F    spin-orbit coupling
   INIWAV =      1    electr: 0-lowe 1-rand  2-diag
   LASPH  =      T    aspherical Exc in radial PAW
   METAGGA=      F    non-selfconsistent MetaGGA calc.

 Electronic Relaxation 1
   ENCUT  =  650.0 eV  47.77 Ry    6.91 a.u.   9.19 14.32 16.43*2*pi/ulx,y,z
   ENINI  =  650.0     initial cutoff
   ENAUG  =  446.8 eV  augmentation charge cutoff
   NELM   =    200;   NELMIN=  8; NELMDL= -5     # of ELM steps 
   EDIFF  = 0.1E-07   stopping-criterion for ELM
   LREAL  =      F    real-space projection
   NLSPLINE    = F    spline interpolate recip. space projectors
   LCOMPAT=      F    compatible to vasp.4.4
   GGA_COMPAT  = T    GGA compatible to vasp.4.4-vasp.4.6
   LMAXPAW     = -100 max onsite density
   LMAXMIX     =    2 max onsite mixed and CHGCAR
   VOSKOWN=      0    Vosko Wilk Nusair interpolation
   ROPT   =    0.00000   0.00000
 Ionic relaxation
   EDIFFG = 0.1E-06   stopping-criterion for IOM
   NSW    =      0    number of steps for IOM
   NBLOCK =      1;   KBLOCK =      1    inner block; outer block 
   IBRION =     -1    ionic relax: 0-MD 1-quasi-New 2-CG
   NFREE  =      0    steps in history (QN), initial steepest desc. (CG)
   ISIF   =      3    stress and relaxation
   IWAVPR =     10    prediction:  0-non 1-charg 2-wave 3-comb
   ISYM   =      2    0-nonsym 1-usesym 2-fastsym
   LCORR  =      T    Harris-Foulkes like correction to forces

   POTIM  = 0.5000    time-step for ionic-motion
   TEIN   =    0.0    initial temperature
   TEBEG  =    0.0;   TEEND  =   0.0 temperature during run
   SMASS  =  -3.00    Nose mass-parameter (am)
   estimated Nose-frequenzy (Omega)   =  0.10E-29 period in steps =****** mass=  -0.446E-27a.u.
   SCALEE = 1.0000    scale energy and forces
   NPACO  =    256;   APACO  = 16.0  distance and # of slots for P.C.
   PSTRESS=    0.0 pullay stress

  Mass of Ions in am
   POMASS =  78.96107.87
  Ionic Valenz
   ZVAL   =   6.00 11.00
  Atomic Wigner-Seitz radii
   RWIGS  =  -1.00 -1.00
  virtual crystal weights 
   VCA    =   1.00  1.00
   NELECT =     112.0000    total number of electrons
   NUPDOWN=      -1.0000    fix difference up-down

 DOS related values:
   EMIN   =  10.00;   EMAX   =-10.00  energy-range for DOS
   EFERMI =   0.00
   ISMEAR =     0;   SIGMA  =   0.05  broadening in eV -4-tet -1-fermi 0-gaus

 Electronic relaxation 2 (details)
   IALGO  =     38    algorithm
   LDIAG  =      T    sub-space diagonalisation (order eigenvalues)
   LSUBROT=      F    optimize rotation matrix (better conditioning)
   TURBO    =      0    0=normal 1=particle mesh
   IRESTART =      0    0=no restart 2=restart with 2 vectors
   NREBOOT  =      0    no. of reboots
   NMIN     =      0    reboot dimension
   EREF     =   0.00    reference energy to select bands
   IMIX   =      4    mixing-type and parameters
     AMIX     =   0.40;   BMIX     =  1.00
     AMIX_MAG =   1.60;   BMIX_MAG =  1.00
     AMIN     =   0.10
     WC   =   100.;   INIMIX=   1;  MIXPRE=   1;  MAXMIX= -45

 Intra band minimization:
   WEIMIN = 0.0000     energy-eigenvalue tresh-hold
   EBREAK =  0.31E-10  absolut break condition
   DEPER  =   0.30     relativ break condition  

   TIME   =   0.40     timestep for ELM

  volume/ion in A,a.u.               =      19.32       130.35
  Fermi-wavevector in a.u.,A,eV,Ry     =   1.284657  2.427649 22.454283  1.650343
  Thomas-Fermi vector in A             =   2.416838
 
 Write flags
   LWAVE        =      F    write WAVECAR
   LDOWNSAMPLE  =      F    k-point downsampling of WAVECAR
   LCHARG       =      T    write CHGCAR
   LVTOT        =      F    write LOCPOT, total local potential
   LVHAR        =      F    write LOCPOT, Hartree potential only
   LELF         =      F    write electronic localiz. function (ELF)
   LORBIT       =      0    0 simple, 1 ext, 2 COOP (PROOUT), +10 PAW based schemes


 Dipole corrections
   LMONO  =      F    monopole corrections only (constant potential shift)
   LDIPOL =      F    correct potential (dipole corrections)
   IDIPOL =      0    1-x, 2-y, 3-z, 4-all directions 
   EPSILON=  1.0000000 bulk dielectric constant

 Exchange correlation treatment:
   GGA     =    PS    GGA type
   LEXCH   =    14    internal setting for exchange type
   VOSKOWN=      0    Vosko Wilk Nusair interpolation
   LHFCALC =     F    Hartree Fock is set to
   LHFONE  =     F    Hartree Fock one center treatment
   AEXX    =    0.0000 exact exchange contribution

 Linear response parameters
   LEPSILON=     T    determine dielectric tensor
   LRPA    =     F    only Hartree local field effects (RPA)
   LNABLA  =     F    use nabla operator in PAW spheres
   LVEL    =     F    velocity operator in full k-point grid
   LINTERFAST=   F  fast interpolation
   KINTER  =     0    interpolate to denser k-point grid
   CSHIFT  =0.1000    complex shift for real part using Kramers Kronig
   OMEGAMAX=  -1.0    maximum frequency
   DEG_THRESHOLD= 0.2000000E-02 threshold for treating states as degnerate
   RTIME   =   -0.100 relaxation time in fs
  (WPLASMAI=    0.000 imaginary part of plasma frequency in eV, 0.658/RTIME)
   DFIELD  = 0.0000000 0.0000000 0.0000000 field for delta impulse in time
 
 Orbital magnetization related:
   ORBITALMAG=     F  switch on orbital magnetization
   LCHIMAG   =     F  perturbation theory with respect to B field
   DQ        =  0.001000  dq finite difference perturbation B field
   LLRAUG    =     F  two centre corrections for induced B field



--------------------------------------------------------------------------------------------------------


 Static calculation
 charge density and potential will be updated during run
 non-spin polarized calculation
 Variant of blocked Davidson
 Davidson routine will perform the subspace rotation
 perform sub-space diagonalisation
    after iterative eigenvector-optimisation
 modified Broyden-mixing scheme, WC =      100.0
 initial mixing is a Kerker type mixing with AMIX =  0.4000 and BMIX =      1.0000
 Hartree-type preconditioning will be used
 using additional bands           24
 reciprocal scheme for non local part
 use partial core corrections
 calculate Harris-corrections to forces 
   (improved forces if not selfconsistent)
 use gradient corrections 
 use of overlap-Matrix (Vanderbilt PP)
 Gauss-broadening in eV      SIGMA  =   0.05


--------------------------------------------------------------------------------------------------------


  energy-cutoff  :      650.00
  volume of cell :      231.78
      direct lattice vectors                 reciprocal lattice vectors
     4.418585750  0.000000000  0.006476890     0.226224601  0.000000000  0.062870077
     0.000000000  6.887581050  0.000000000     0.000000000  0.145188854  0.000000000
    -2.115720840  0.000000000  7.612971430    -0.000192465  0.000000000  0.131301267

  length of vectors
     4.418590497  6.887581050  7.901494078     0.234798247  0.145188854  0.131301408


 
 k-points in units of 2pi/SCALE and weight: # No comment                            
   0.00000000  0.00000000  0.00000000       0.010
   0.03770410  0.00000000  0.01047835       0.021
   0.07540820  0.00000000  0.02095669       0.021
   0.11311230  0.00000000  0.03143504       0.010
   0.00000000  0.03629721  0.00000000       0.021
   0.03770410  0.03629721  0.01047835       0.042
   0.07540820  0.03629721  0.02095669       0.042
   0.11311230  0.03629721  0.03143504       0.021
   0.00000000  0.07259443  0.00000000       0.010
   0.03770410  0.07259443  0.01047835       0.021
   0.07540820  0.07259443  0.02095669       0.021
   0.11311230  0.07259443  0.03143504       0.010
  -0.00004812  0.00000000  0.03282532       0.021
   0.03765598  0.00000000  0.04330366       0.021
   0.07536008  0.00000000  0.05378201       0.021
   0.11306418  0.00000000  0.06426036       0.021
  -0.07545632  0.00000000  0.01186862       0.021
  -0.03775222  0.00000000  0.02234697       0.021
  -0.00004812  0.03629721  0.03282532       0.042
   0.03765598  0.03629721  0.04330366       0.042
   0.07536008  0.03629721  0.05378201       0.042
   0.11306418  0.03629721  0.06426036       0.042
  -0.07545632  0.03629721  0.01186862       0.042
  -0.03775222  0.03629721  0.02234697       0.042
  -0.00004812  0.07259443  0.03282532       0.021
   0.03765598  0.07259443  0.04330366       0.021
   0.07536008  0.07259443  0.05378201       0.021
   0.11306418  0.07259443  0.06426036       0.021
  -0.07545632  0.07259443  0.01186862       0.021
  -0.03775222  0.07259443  0.02234697       0.021
  -0.00009623  0.00000000  0.06565063       0.010
   0.03760787  0.00000000  0.07612898       0.021
   0.07531197  0.00000000  0.08660733       0.021
   0.11301607  0.00000000  0.09708567       0.010
  -0.00009623  0.03629721  0.06565063       0.021
   0.03760787  0.03629721  0.07612898       0.042
   0.07531197  0.03629721  0.08660733       0.042
   0.11301607  0.03629721  0.09708567       0.021
  -0.00009623  0.07259443  0.06565063       0.010
   0.03760787  0.07259443  0.07612898       0.021
   0.07531197  0.07259443  0.08660733       0.021
   0.11301607  0.07259443  0.09708567       0.010
 
 k-points in reciprocal lattice and weights: # No comment                            
   0.00000000  0.00000000  0.00000000       0.010
   0.16666667  0.00000000  0.00000000       0.021
   0.33333333  0.00000000  0.00000000       0.021
   0.50000000  0.00000000  0.00000000       0.010
   0.00000000  0.25000000  0.00000000       0.021
   0.16666667  0.25000000  0.00000000       0.042
   0.33333333  0.25000000  0.00000000       0.042
   0.50000000  0.25000000  0.00000000       0.021
   0.00000000  0.50000000  0.00000000       0.010
   0.16666667  0.50000000  0.00000000       0.021
   0.33333333  0.50000000  0.00000000       0.021
   0.50000000  0.50000000  0.00000000       0.010
  -0.00000000  0.00000000  0.25000000       0.021
   0.16666667  0.00000000  0.25000000       0.021
   0.33333333  0.00000000  0.25000000       0.021
   0.50000000  0.00000000  0.25000000       0.021
  -0.33333333  0.00000000  0.25000000       0.021
  -0.16666667  0.00000000  0.25000000       0.021
  -0.00000000  0.25000000  0.25000000       0.042
   0.16666667  0.25000000  0.25000000       0.042
   0.33333333  0.25000000  0.25000000       0.042
   0.50000000  0.25000000  0.25000000       0.042
  -0.33333333  0.25000000  0.25000000       0.042
  -0.16666667  0.25000000  0.25000000       0.042
  -0.00000000  0.50000000  0.25000000       0.021
   0.16666667  0.50000000  0.25000000       0.021
   0.33333333  0.50000000  0.25000000       0.021
   0.50000000  0.50000000  0.25000000       0.021
  -0.33333333  0.50000000  0.25000000       0.021
  -0.16666667  0.50000000  0.25000000       0.021
  -0.00000000  0.00000000  0.50000000       0.010
   0.16666667  0.00000000  0.50000000       0.021
   0.33333333  0.00000000  0.50000000       0.021
   0.50000000  0.00000000  0.50000000       0.010
  -0.00000000  0.25000000  0.50000000       0.021
   0.16666667  0.25000000  0.50000000       0.042
   0.33333333  0.25000000  0.50000000       0.042
   0.50000000  0.25000000  0.50000000       0.021
  -0.00000000  0.50000000  0.50000000       0.010
   0.16666667  0.50000000  0.50000000       0.021
   0.33333333  0.50000000  0.50000000       0.021
   0.50000000  0.50000000  0.50000000       0.010
 
 position of ions in fractional coordinates (direct lattice) 
   0.32125411  0.24827764  0.15683651
   0.17874584  0.74827764  0.34316337
   0.67874584  0.75172236  0.84316337
   0.82125411  0.25172236  0.65683651
   0.76724883  0.02244519  0.34006836
   0.73275113  0.52244519  0.15993152
   0.23275113  0.97755481  0.65993152
   0.26724883  0.47755481  0.84006836
   0.22434047  0.36074499  0.46703901
   0.27565948  0.86074499  0.03296087
   0.77565948  0.63925501  0.53296087
   0.72434047  0.13925501  0.96703901
 
 position of ions in cartesian coordinates  (Angst):
   1.08766656  1.71003237  1.19607260
   0.06376593  5.15382289  2.61365065
   1.21519838  5.17754868  6.42337481
   2.23909901  1.73375816  5.00579676
   2.67066503  0.15459307  2.59390010
   2.89935325  3.59838359  1.22230004
  -0.36780004  6.73298798  5.02554731
  -0.59648826  3.28919746  6.39714737
   0.00314344  2.48466036  3.55700767
   1.14828905  5.92845088  0.25271558
   2.29972151  4.40292069  4.06243974
   1.15457589  0.95913017  7.36673183
 


--------------------------------------------------------------------------------------------------------


 k-point  1 :   0.0000 0.0000 0.0000  plane waves:    8689
 k-point  2 :   0.1667 0.0000 0.0000  plane waves:    8707
 k-point  3 :   0.3333 0.0000 0.0000  plane waves:    8735
 k-point  4 :   0.5000 0.0000 0.0000  plane waves:    8738
 k-point  5 :   0.0000 0.2500 0.0000  plane waves:    8727
 k-point  6 :   0.1667 0.2500 0.0000  plane waves:    8730
 k-point  7 :   0.3333 0.2500 0.0000  plane waves:    8733
 k-point  8 :   0.5000 0.2500 0.0000  plane waves:    8716
 k-point  9 :   0.0000 0.5000 0.0000  plane waves:    8740
 k-point 10 :   0.1667 0.5000 0.0000  plane waves:    8748
 k-point 11 :   0.3333 0.5000 0.0000  plane waves:    8724
 k-point 12 :   0.5000 0.5000 0.0000  plane waves:    8696
 k-point 13 :  -0.0000 0.0000 0.2500  plane waves:    8704
 k-point 14 :   0.1667 0.0000 0.2500  plane waves:    8709
 k-point 15 :   0.3333 0.0000 0.2500  plane waves:    8749
 k-point 16 :   0.5000 0.0000 0.2500  plane waves:    8769
 k-point 17 :  -0.3333 0.0000 0.2500  plane waves:    8727
 k-point 18 :  -0.1667 0.0000 0.2500  plane waves:    8726
 k-point 19 :  -0.0000 0.2500 0.2500  plane waves:    8731
 k-point 20 :   0.1667 0.2500 0.2500  plane waves:    8718
 k-point 21 :   0.3333 0.2500 0.2500  plane waves:    8709
 k-point 22 :   0.5000 0.2500 0.2500  plane waves:    8734
 k-point 23 :  -0.3333 0.2500 0.2500  plane waves:    8741
 k-point 24 :  -0.1667 0.2500 0.2500  plane waves:    8715
 k-point 25 :  -0.0000 0.5000 0.2500  plane waves:    8730
 k-point 26 :   0.1667 0.5000 0.2500  plane waves:    8720
 k-point 27 :   0.3333 0.5000 0.2500  plane waves:    8714
 k-point 28 :   0.5000 0.5000 0.2500  plane waves:    8698
 k-point 29 :  -0.3333 0.5000 0.2500  plane waves:    8752
 k-point 30 :  -0.1667 0.5000 0.2500  plane waves:    8704
 k-point 31 :  -0.0000 0.0000 0.5000  plane waves:    8694
 k-point 32 :   0.1667 0.0000 0.5000  plane waves:    8711
 k-point 33 :   0.3333 0.0000 0.5000  plane waves:    8724
 k-point 34 :   0.5000 0.0000 0.5000  plane waves:    8756
 k-point 35 :  -0.0000 0.2500 0.5000  plane waves:    8708
 k-point 36 :   0.1667 0.2500 0.5000  plane waves:    8703
 k-point 37 :   0.3333 0.2500 0.5000  plane waves:    8711
 k-point 38 :   0.5000 0.2500 0.5000  plane waves:    8732
 k-point 39 :  -0.0000 0.5000 0.5000  plane waves:    8724
 k-point 40 :   0.1667 0.5000 0.5000  plane waves:    8720
 k-point 41 :   0.3333 0.5000 0.5000  plane waves:    8724
 k-point 42 :   0.5000 0.5000 0.5000  plane waves:    8708

 maximum and minimum number of plane-waves per node :      8769     8689

 maximum number of plane-waves:      8769
 maximum index in each direction: 
   IXMAX=    9   IYMAX=   14   IZMAX=   16
   IXMIN=   -9   IYMIN=  -14   IZMIN=  -16


 serial   3D FFT for wavefunctions
 parallel 3D FFT for charge:
    minimum data exchange during FFTs selected (reduces bandwidth)


 total amount of memory used by VASP MPI-rank0   183324. kBytes
=======================================================================

   base      :      30000. kBytes
   nonl-proj :     107888. kBytes
   fftplans  :      10552. kBytes
   grid      :      10560. kBytes
   one-center:        186. kBytes
   wavefun   :      24138. kBytes
 
     INWAV:  cpu time    0.0000: real time    0.0001
 Broyden mixing: mesh for mixing (old mesh)
   NGX = 19   NGY = 29   NGZ = 33
  (NGX  = 80   NGY  =120   NGZ  =140)
  gives a total of  18183 points

 initial charge density was supplied:
 charge density of overlapping atoms calculated
 number of electron     112.0000000 magnetization 
 keeping initial charge density in first step


--------------------------------------------------------------------------------------------------------


 Maximum index for augmentation-charges        13763 (set IRDMAX)


--------------------------------------------------------------------------------------------------------


 First call to EWALD:  gamma=   0.289
 Maximum number of real-space cells 4x 3x 2
 Maximum number of reciprocal cells 2x 3x 3

    FEWALD:  cpu time    0.0014: real time    0.0014


--------------------------------------- Iteration      1(   1)  ---------------------------------------


    POTLOK:  cpu time    0.0390: real time    0.0419
    SETDIJ:  cpu time    0.2071: real time    0.2081
     EDDAV:  cpu time    7.1748: real time    7.2085
       DOS:  cpu time    0.0013: real time    0.0013
    --------------------------------------------
      LOOP:  cpu time    7.4222: real time    7.4599

 eigenvalue-minimisations  :  6720
 total energy-change (2. order) : 0.7838248E+03  (-0.6237946E+04)
 number of electron     112.0000000 magnetization 
 augmentation part      112.0000000 magnetization 

 Free energy of the ion-electron system (eV)
  ---------------------------------------------------
  alpha Z        PSCENC =       411.25183851
  Ewald energy   TEWEN  =     -8271.01499982
  -Hartree energ DENC   =     -2130.44452835
  -exchange      EXHF   =         0.00000000
  -V(xc)+E(xc)   XCENC  =       -74.13083245
  PAW double counting   =      8857.22817157    -8441.54974434
  entropy T*S    EENTRO =        -0.00740746
  eigenvalues    EBANDS =      1108.99409466
  atomic energy  EATOM  =      9323.49817503
  Solvation  Ediel_sol  =         0.00000000
  ---------------------------------------------------
  free energy    TOTEN  =       783.82476735 eV

  energy without entropy =      783.83217480  energy(sigma->0) =      783.82847108


--------------------------------------------------------------------------------------------------------




--------------------------------------- Iteration      1(   2)  ---------------------------------------


     EDDAV:  cpu time    8.1410: real time    8.1772
       DOS:  cpu time    0.0009: real time    0.0009
    --------------------------------------------
      LOOP:  cpu time    8.1419: real time    8.1781

 eigenvalue-minimisations  :  7560
 total energy-change (2. order) :-0.7981827E+03  (-0.7595797E+03)
 number of electron     112.0000000 magnetization 
 augmentation part      112.0000000 magnetization 

 Free energy of the ion-electron system (eV)
  ---------------------------------------------------
  alpha Z        PSCENC =       411.25183851
  Ewald energy   TEWEN  =     -8271.01499982
  -Hartree energ DENC   =     -2130.44452835
  -exchange      EXHF   =         0.00000000
  -V(xc)+E(xc)   XCENC  =       -74.13083245
  PAW double counting   =      8857.22817157    -8441.54974434
  entropy T*S    EENTRO =        -0.00051227
  eigenvalues    EBANDS =       310.80449142
  atomic energy  EATOM  =      9323.49817503
  Solvation  Ediel_sol  =         0.00000000
  ---------------------------------------------------
  free energy    TOTEN  =       -14.35794071 eV

  energy without entropy =      -14.35742844  energy(sigma->0) =      -14.35768457


--------------------------------------------------------------------------------------------------------




--------------------------------------- Iteration      1(   3)  ---------------------------------------


     EDDAV:  cpu time    8.2504: real time    8.2792
       DOS:  cpu time    0.0009: real time    0.0009
    --------------------------------------------
      LOOP:  cpu time    8.2513: real time    8.2801

 eigenvalue-minimisations  :  8340
 total energy-change (2. order) :-0.3044610E+02  (-0.3018930E+02)
 number of electron     112.0000000 magnetization 
 augmentation part      112.0000000 magnetization 

 Free energy of the ion-electron system (eV)
  ---------------------------------------------------
  alpha Z        PSCENC =       411.25183851
  Ewald energy   TEWEN  =     -8271.01499982
  -Hartree energ DENC   =     -2130.44452835
  -exchange      EXHF   =         0.00000000
  -V(xc)+E(xc)   XCENC  =       -74.13083245
  PAW double counting   =      8857.22817157    -8441.54974434
  entropy T*S    EENTRO =        -0.00033177
  eigenvalues    EBANDS =       280.35821312
  atomic energy  EATOM  =      9323.49817503
  Solvation  Ediel_sol  =         0.00000000
  ---------------------------------------------------
  free energy    TOTEN  =       -44.80403850 eV

  energy without entropy =      -44.80370673  energy(sigma->0) =      -44.80387262


--------------------------------------------------------------------------------------------------------




--------------------------------------- Iteration      1(   4)  ---------------------------------------


     EDDAV:  cpu time    7.0388: real time    7.0646
       DOS:  cpu time    0.0008: real time    0.0008
    --------------------------------------------
      LOOP:  cpu time    7.0397: real time    7.0654

 eigenvalue-minimisations  :  6820
 total energy-change (2. order) :-0.2127558E+00  (-0.2127299E+00)
 number of electron     112.0000000 magnetization 
 augmentation part      112.0000000 magnetization 

 Free energy of the ion-electron system (eV)
  ---------------------------------------------------
  alpha Z        PSCENC =       411.25183851
  Ewald energy   TEWEN  =     -8271.01499982
  -Hartree energ DENC   =     -2130.44452835
  -exchange      EXHF   =         0.00000000
  -V(xc)+E(xc)   XCENC  =       -74.13083245
  PAW double counting   =      8857.22817157    -8441.54974434
  entropy T*S    EENTRO =        -0.00032551
  eigenvalues    EBANDS =       280.14545102
  atomic energy  EATOM  =      9323.49817503
  Solvation  Ediel_sol  =         0.00000000
  ---------------------------------------------------
  free energy    TOTEN  =       -45.01679435 eV

  energy without entropy =      -45.01646884  energy(sigma->0) =      -45.01663159


--------------------------------------------------------------------------------------------------------




--------------------------------------- Iteration      1(   5)  ---------------------------------------


     EDDAV:  cpu time    8.2847: real time    8.3138
       DOS:  cpu time    0.0009: real time    0.0009
    CHARGE:  cpu time    0.4588: real time    0.4601
    MIXING:  cpu time    0.0014: real time    0.0014
    --------------------------------------------
      LOOP:  cpu time    8.7458: real time    8.7762

 eigenvalue-minimisations  :  8380
 total energy-change (2. order) :-0.1625770E-02  (-0.1625755E-02)
 number of electron     112.0000002 magnetization 
 augmentation part       36.0979309 magnetization 

 Broyden mixing:
  rms(total) = 0.17065E+01    rms(broyden)= 0.17065E+01
  rms(prec ) = 0.20854E+01
  weight for this iteration     100.00

 Free energy of the ion-electron system (eV)
  ---------------------------------------------------
  alpha Z        PSCENC =       411.25183851
  Ewald energy   TEWEN  =     -8271.01499982
  -Hartree energ DENC   =     -2130.44452835
  -exchange      EXHF   =         0.00000000
  -V(xc)+E(xc)   XCENC  =       -74.13083245
  PAW double counting   =      8857.22817157    -8441.54974434
  entropy T*S    EENTRO =        -0.00032543
  eigenvalues    EBANDS =       280.14382517
  atomic energy  EATOM  =      9323.49817503
  Solvation  Ediel_sol  =         0.00000000
  ---------------------------------------------------
  free energy    TOTEN  =       -45.01842012 eV

  energy without entropy =      -45.01809468  energy(sigma->0) =      -45.01825740


--------------------------------------------------------------------------------------------------------




--------------------------------------- Iteration      1(   6)  ---------------------------------------


    POTLOK:  cpu time    0.0346: real time    0.0371
    SETDIJ:  cpu time    0.2145: real time    0.2152
     EDDAV:  cpu time    8.2780: real time    8.3145
       DOS:  cpu time    0.0009: real time    0.0009
    CHARGE:  cpu time    0.4463: real time    0.4474
    MIXING:  cpu time    0.0022: real time    0.0030
    --------------------------------------------
      LOOP:  cpu time    8.9764: real time    9.0181

 eigenvalue-minimisations  :  7640
 total energy-change (2. order) : 0.2704501E+01  (-0.9351266E+00)
 number of electron     112.0000002 magnetization 
 augmentation part       37.8465750 magnetization 

 Broyden mixing:
  rms(total) = 0.13058E+01    rms(broyden)= 0.13058E+01
  rms(prec ) = 0.13136E+01
  weight for this iteration     100.00

 eigenvalues of (default mixing * dielectric matrix)
  average eigenvalue GAMMA=   1.0961
  1.0961

 Free energy of the ion-electron system (eV)
  ---------------------------------------------------
  alpha Z        PSCENC =       411.25183851
  Ewald energy   TEWEN  =     -8271.01499982
  -Hartree energ DENC   =     -2043.17914574
  -exchange      EXHF   =         0.00000000
  -V(xc)+E(xc)   XCENC  =       -76.69423228
  PAW double counting   =      9291.21260949    -8880.17711531
  entropy T*S    EENTRO =        -0.00066241
  eigenvalues    EBANDS =       202.78961374
  atomic energy  EATOM  =      9323.49817503
  Solvation  Ediel_sol  =         0.00000000
  ---------------------------------------------------
  free energy    TOTEN  =       -42.31391879 eV

  energy without entropy =      -42.31325638  energy(sigma->0) =      -42.31358758


--------------------------------------------------------------------------------------------------------




--------------------------------------- Iteration      1(   7)  ---------------------------------------


    POTLOK:  cpu time    0.0434: real time    0.0459
    SETDIJ:  cpu time    0.2216: real time    0.2221
     EDDAV:  cpu time    7.9552: real time    7.9938
       DOS:  cpu time    0.0008: real time    0.0008
    CHARGE:  cpu time    0.4403: real time    0.4416
    MIXING:  cpu time    0.0017: real time    0.0017
    --------------------------------------------
      LOOP:  cpu time    8.6629: real time    8.7059

 eigenvalue-minimisations  :  7420
 total energy-change (2. order) : 0.2753501E-02  (-0.8261169E-01)
 number of electron     112.0000002 magnetization 
 augmentation part       37.8386203 magnetization 

 Broyden mixing:
  rms(total) = 0.68922E+00    rms(broyden)= 0.68922E+00
  rms(prec ) = 0.69639E+00
  weight for this iteration     100.00

 eigenvalues of (default mixing * dielectric matrix)
  average eigenvalue GAMMA=   1.5906
  0.9825  2.1988

 Free energy of the ion-electron system (eV)
  ---------------------------------------------------
  alpha Z        PSCENC =       411.25183851
  Ewald energy   TEWEN  =     -8271.01499982
  -Hartree energ DENC   =     -2042.10064133
  -exchange      EXHF   =         0.00000000
  -V(xc)+E(xc)   XCENC  =       -76.69883843
  PAW double counting   =      9658.71759974    -9252.33275506
  entropy T*S    EENTRO =        -0.00065155
  eigenvalues    EBANDS =       206.36910762
  atomic energy  EATOM  =      9323.49817503
  Solvation  Ediel_sol  =         0.00000000
  ---------------------------------------------------
  free energy    TOTEN  =       -42.31116529 eV

  energy without entropy =      -42.31051374  energy(sigma->0) =      -42.31083951


--------------------------------------------------------------------------------------------------------




--------------------------------------- Iteration      1(   8)  ---------------------------------------


    POTLOK:  cpu time    0.0338: real time    0.0370
    SETDIJ:  cpu time    0.2143: real time    0.2148
     EDDAV:  cpu time    7.9417: real time    7.9659
       DOS:  cpu time    0.0009: real time    0.0009
    CHARGE:  cpu time    0.4432: real time    0.4443
    MIXING:  cpu time    0.0019: real time    0.0019
    --------------------------------------------
      LOOP:  cpu time    8.6357: real time    8.6647

 eigenvalue-minimisations  :  7980
 total energy-change (2. order) : 0.3828878E-01  (-0.4367773E-02)
 number of electron     112.0000002 magnetization 
 augmentation part       37.7666769 magnetization 

 Broyden mixing:
  rms(total) = 0.62393E-01    rms(broyden)= 0.62393E-01
  rms(prec ) = 0.73258E-01
  weight for this iteration     100.00

 eigenvalues of (default mixing * dielectric matrix)
  average eigenvalue GAMMA=   1.4677
  2.4067  0.9982  0.9982

 Free energy of the ion-electron system (eV)
  ---------------------------------------------------
  alpha Z        PSCENC =       411.25183851
  Ewald energy   TEWEN  =     -8271.01499982
  -Hartree energ DENC   =     -2036.91058114
  -exchange      EXHF   =         0.00000000
  -V(xc)+E(xc)   XCENC  =       -76.84417254
  PAW double counting   =     10146.24888281    -9745.15207233
  entropy T*S    EENTRO =        -0.00065408
  eigenvalues    EBANDS =       206.65070706
  atomic energy  EATOM  =      9323.49817503
  Solvation  Ediel_sol  =         0.00000000
  ---------------------------------------------------
  free energy    TOTEN  =       -42.27287651 eV

  energy without entropy =      -42.27222243  energy(sigma->0) =      -42.27254947


--------------------------------------------------------------------------------------------------------




--------------------------------------- Iteration      1(   9)  ---------------------------------------


    POTLOK:  cpu time    0.0337: real time    0.0364
    SETDIJ:  cpu time    0.2143: real time    0.2149
     EDDAV:  cpu time    7.9436: real time    7.9674
       DOS:  cpu time    0.0009: real time    0.0009
    CHARGE:  cpu time    0.4412: real time    0.4424
    MIXING:  cpu time    0.0019: real time    0.0019
    --------------------------------------------
      LOOP:  cpu time    8.6355: real time    8.6637

 eigenvalue-minimisations  :  8000
 total energy-change (2. order) : 0.2855178E-02  (-0.8685122E-03)
 number of electron     112.0000002 magnetization 
 augmentation part       37.8079925 magnetization 

 Broyden mixing:
  rms(total) = 0.16397E-01    rms(broyden)= 0.16397E-01
  rms(prec ) = 0.17519E-01
  weight for this iteration     100.00

 eigenvalues of (default mixing * dielectric matrix)
  average eigenvalue GAMMA=   1.5988
  0.9915  0.9915  2.5348  1.8776

 Free energy of the ion-electron system (eV)
  ---------------------------------------------------
  alpha Z        PSCENC =       411.25183851
  Ewald energy   TEWEN  =     -8271.01499982
  -Hartree energ DENC   =     -2034.07435260
  -exchange      EXHF   =         0.00000000
  -V(xc)+E(xc)   XCENC  =       -76.92011592
  PAW double counting   =     10195.61907459    -9795.05836445
  entropy T*S    EENTRO =        -0.00063805
  eigenvalues    EBANDS =       204.42936137
  atomic energy  EATOM  =      9323.49817503
  Solvation  Ediel_sol  =         0.00000000
  ---------------------------------------------------
  free energy    TOTEN  =       -42.27002133 eV

  energy without entropy =      -42.26938329  energy(sigma->0) =      -42.26970231


--------------------------------------------------------------------------------------------------------




--------------------------------------- Iteration      1(  10)  ---------------------------------------


    POTLOK:  cpu time    0.0363: real time    0.0366
    SETDIJ:  cpu time    0.2181: real time    0.2186
     EDDAV:  cpu time    7.6291: real time    7.6526
       DOS:  cpu time    0.0008: real time    0.0008
    CHARGE:  cpu time    0.4579: real time    0.4591
    MIXING:  cpu time    0.0025: real time    0.0025
    --------------------------------------------
      LOOP:  cpu time    8.3447: real time    8.3701

 eigenvalue-minimisations  :  7580
 total energy-change (2. order) :-0.7424441E-04  (-0.1353130E-03)
 number of electron     112.0000002 magnetization 
 augmentation part       37.8129807 magnetization 

 Broyden mixing:
  rms(total) = 0.62849E-02    rms(broyden)= 0.62849E-02
  rms(prec ) = 0.69390E-02
  weight for this iteration     100.00

 eigenvalues of (default mixing * dielectric matrix)
  average eigenvalue GAMMA=   1.5686
  2.5407  2.3569  0.9848  0.9848  0.9760

 Free energy of the ion-electron system (eV)
  ---------------------------------------------------
  alpha Z        PSCENC =       411.25183851
  Ewald energy   TEWEN  =     -8271.01499982
  -Hartree energ DENC   =     -2033.96923231
  -exchange      EXHF   =         0.00000000
  -V(xc)+E(xc)   XCENC  =       -76.92360526
  PAW double counting   =     10193.94973119    -9793.46586090
  entropy T*S    EENTRO =        -0.00063693
  eigenvalues    EBANDS =       204.40449491
  atomic energy  EATOM  =      9323.49817503
  Solvation  Ediel_sol  =         0.00000000
  ---------------------------------------------------
  free energy    TOTEN  =       -42.27009558 eV

  energy without entropy =      -42.26945865  energy(sigma->0) =      -42.26977711


--------------------------------------------------------------------------------------------------------




--------------------------------------- Iteration      1(  11)  ---------------------------------------


    POTLOK:  cpu time    0.0389: real time    0.0421
    SETDIJ:  cpu time    0.2140: real time    0.2146
     EDDAV:  cpu time    8.6383: real time    8.6729
       DOS:  cpu time    0.0008: real time    0.0008
    CHARGE:  cpu time    0.4602: real time    0.4616
    MIXING:  cpu time    0.0026: real time    0.0026
    --------------------------------------------
      LOOP:  cpu time    9.3548: real time    9.3946

 eigenvalue-minimisations  :  7820
 total energy-change (2. order) : 0.7729017E-05  (-0.6534299E-05)
 number of electron     112.0000002 magnetization 
 augmentation part       37.8107452 magnetization 

 Broyden mixing:
  rms(total) = 0.18294E-02    rms(broyden)= 0.18293E-02
  rms(prec ) = 0.20976E-02
  weight for this iteration     100.00

 eigenvalues of (default mixing * dielectric matrix)
  average eigenvalue GAMMA=   1.4878
  2.4711  2.4603  1.0377  1.0377  1.0507  0.8695

 Free energy of the ion-electron system (eV)
  ---------------------------------------------------
  alpha Z        PSCENC =       411.25183851
  Ewald energy   TEWEN  =     -8271.01499982
  -Hartree energ DENC   =     -2034.06273118
  -exchange      EXHF   =         0.00000000
  -V(xc)+E(xc)   XCENC  =       -76.92428384
  PAW double counting   =     10190.28680447    -9789.78405217
  entropy T*S    EENTRO =        -0.00063841
  eigenvalues    EBANDS =       204.47979956
  atomic energy  EATOM  =      9323.49817503
  Solvation  Ediel_sol  =         0.00000000
  ---------------------------------------------------
  free energy    TOTEN  =       -42.27008785 eV

  energy without entropy =      -42.26944944  energy(sigma->0) =      -42.26976864


--------------------------------------------------------------------------------------------------------




--------------------------------------- Iteration      1(  12)  ---------------------------------------


    POTLOK:  cpu time    0.0425: real time    0.0456
    SETDIJ:  cpu time    0.2137: real time    0.2142
     EDDAV:  cpu time    7.7481: real time    7.7719
       DOS:  cpu time    0.0008: real time    0.0008
    CHARGE:  cpu time    0.4364: real time    0.4375
    MIXING:  cpu time    0.0016: real time    0.0016
    --------------------------------------------
      LOOP:  cpu time    8.4431: real time    8.4716

 eigenvalue-minimisations  :  7720
 total energy-change (2. order) : 0.1279508E-05  (-0.9609963E-06)
 number of electron     112.0000002 magnetization 
 augmentation part       37.8107772 magnetization 

 Broyden mixing:
  rms(total) = 0.67709E-03    rms(broyden)= 0.67698E-03
  rms(prec ) = 0.73943E-03
  weight for this iteration     100.00

 eigenvalues of (default mixing * dielectric matrix)
  average eigenvalue GAMMA=   1.5335
  2.7524  2.4080  1.3564  1.3564  1.0107  1.0107  0.8400

 Free energy of the ion-electron system (eV)
  ---------------------------------------------------
  alpha Z        PSCENC =       411.25183851
  Ewald energy   TEWEN  =     -8271.01499982
  -Hartree energ DENC   =     -2034.02771273
  -exchange      EXHF   =         0.00000000
  -V(xc)+E(xc)   XCENC  =       -76.92614337
  PAW double counting   =     10190.64200214    -9790.13770222
  entropy T*S    EENTRO =        -0.00063861
  eigenvalues    EBANDS =       204.44509450
  atomic energy  EATOM  =      9323.49817503
  Solvation  Ediel_sol  =         0.00000000
  ---------------------------------------------------
  free energy    TOTEN  =       -42.27008657 eV

  energy without entropy =      -42.26944796  energy(sigma->0) =      -42.26976726


--------------------------------------------------------------------------------------------------------




--------------------------------------- Iteration      1(  13)  ---------------------------------------


    POTLOK:  cpu time    0.0357: real time    0.0387
    SETDIJ:  cpu time    0.2197: real time    0.2203
     EDDAV:  cpu time    7.8822: real time    7.9075
       DOS:  cpu time    0.0008: real time    0.0008
    CHARGE:  cpu time    0.4428: real time    0.4440
    MIXING:  cpu time    0.0023: real time    0.0023
    --------------------------------------------
      LOOP:  cpu time    8.5834: real time    8.6136

 eigenvalue-minimisations  :  7880
 total energy-change (2. order) :-0.4870890E-07  (-0.6258725E-07)
 number of electron     112.0000002 magnetization 
 augmentation part       37.8108388 magnetization 

 Broyden mixing:
  rms(total) = 0.21900E-03    rms(broyden)= 0.21867E-03
  rms(prec ) = 0.25964E-03
  weight for this iteration     100.00

 eigenvalues of (default mixing * dielectric matrix)
  average eigenvalue GAMMA=   1.5409
  2.7473  2.4990  1.9722  1.2063  1.0301  1.0301  1.0096  0.8327

 Free energy of the ion-electron system (eV)
  ---------------------------------------------------
  alpha Z        PSCENC =       411.25183851
  Ewald energy   TEWEN  =     -8271.01499982
  -Hartree energ DENC   =     -2034.01982131
  -exchange      EXHF   =         0.00000000
  -V(xc)+E(xc)   XCENC  =       -76.92656526
  PAW double counting   =     10191.05378074    -9790.54790453
  entropy T*S    EENTRO =        -0.00063855
  eigenvalues    EBANDS =       204.43604857
  atomic energy  EATOM  =      9323.49817503
  Solvation  Ediel_sol  =         0.00000000
  ---------------------------------------------------
  free energy    TOTEN  =       -42.27008662 eV

  energy without entropy =      -42.26944807  energy(sigma->0) =      -42.26976734


--------------------------------------------------------------------------------------------------------




--------------------------------------- Iteration      1(  14)  ---------------------------------------


    POTLOK:  cpu time    0.0337: real time    0.0362
    SETDIJ:  cpu time    0.2143: real time    0.2148
     EDDAV:  cpu time    7.5841: real time    7.6074
       DOS:  cpu time    0.0008: real time    0.0008
    CHARGE:  cpu time    0.4416: real time    0.4426
    MIXING:  cpu time    0.0019: real time    0.0019
    --------------------------------------------
      LOOP:  cpu time    8.2765: real time    8.3037

 eigenvalue-minimisations  :  7580
 total energy-change (2. order) : 0.1561293E-06  (-0.1141894E-07)
 number of electron     112.0000002 magnetization 
 augmentation part       37.8106706 magnetization 

 Broyden mixing:
  rms(total) = 0.49812E-04    rms(broyden)= 0.48341E-04
  rms(prec ) = 0.50369E-04
  weight for this iteration     100.00

 eigenvalues of (default mixing * dielectric matrix)
  average eigenvalue GAMMA=   1.5723
  2.6398  2.6398  2.4010  1.3015  1.3015  1.0198  1.0198  0.9827  0.8446

 Free energy of the ion-electron system (eV)
  ---------------------------------------------------
  alpha Z        PSCENC =       411.25183851
  Ewald energy   TEWEN  =     -8271.01499982
  -Hartree energ DENC   =     -2034.03061480
  -exchange      EXHF   =         0.00000000
  -V(xc)+E(xc)   XCENC  =       -76.92622871
  PAW double counting   =     10191.16581870    -9790.65767964
  entropy T*S    EENTRO =        -0.00063855
  eigenvalues    EBANDS =       204.44424284
  atomic energy  EATOM  =      9323.49817503
  Solvation  Ediel_sol  =         0.00000000
  ---------------------------------------------------
  free energy    TOTEN  =       -42.27008646 eV

  energy without entropy =      -42.26944791  energy(sigma->0) =      -42.26976718


--------------------------------------------------------------------------------------------------------




--------------------------------------- Iteration      1(  15)  ---------------------------------------


    POTLOK:  cpu time    0.0367: real time    0.0371
    SETDIJ:  cpu time    0.2149: real time    0.2155
     EDDAV:  cpu time    6.4341: real time    6.4570
       DOS:  cpu time    0.0010: real time    0.0010
    CHARGE:  cpu time    0.4716: real time    0.4727
    MIXING:  cpu time    0.0037: real time    0.0037
    --------------------------------------------
      LOOP:  cpu time    7.1621: real time    7.1870

 eigenvalue-minimisations  :  5700
 total energy-change (2. order) : 0.1803528E-07  (-0.1712009E-08)
 number of electron     112.0000002 magnetization 
 augmentation part       37.8106660 magnetization 

 Broyden mixing:
  rms(total) = 0.27550E-04    rms(broyden)= 0.24791E-04
  rms(prec ) = 0.26332E-04
  weight for this iteration     100.00
  WARNING: grid for Broyden might be to small

 eigenvalues of (default mixing * dielectric matrix)
  average eigenvalue GAMMA=   1.5829
  2.8031  2.4647  2.3519  2.0288  1.3131  1.0232  1.0232  0.9879  0.9879  0.8448

 Free energy of the ion-electron system (eV)
  ---------------------------------------------------
  alpha Z        PSCENC =       411.25183851
  Ewald energy   TEWEN  =     -8271.01499982
  -Hartree energ DENC   =     -2034.03103281
  -exchange      EXHF   =         0.00000000
  -V(xc)+E(xc)   XCENC  =       -76.92618795
  PAW double counting   =     10191.27255983    -9790.76416967
  entropy T*S    EENTRO =        -0.00063854
  eigenvalues    EBANDS =       204.44436898
  atomic energy  EATOM  =      9323.49817503
  Solvation  Ediel_sol  =         0.00000000
  ---------------------------------------------------
  free energy    TOTEN  =       -42.27008644 eV

  energy without entropy =      -42.26944790  energy(sigma->0) =      -42.26976717


--------------------------------------------------------------------------------------------------------




--------------------------------------- Iteration      1(  16)  ---------------------------------------


    POTLOK:  cpu time    0.0394: real time    0.0425
    SETDIJ:  cpu time    0.2607: real time    0.2614
     EDDAV:  cpu time    6.1092: real time    6.1430
       DOS:  cpu time    0.0011: real time    0.0011
    --------------------------------------------
      LOOP:  cpu time    6.4104: real time    6.4480

 eigenvalue-minimisations  :  4560
 total energy-change (2. order) :-0.4445610E-08  (-0.8467306E-10)
 number of electron     112.0000002 magnetization 
 augmentation part       37.8106660 magnetization 

 Free energy of the ion-electron system (eV)
  ---------------------------------------------------
  alpha Z        PSCENC =       411.25183851
  Ewald energy   TEWEN  =     -8271.01499982
  -Hartree energ DENC   =     -2034.03111715
  -exchange      EXHF   =         0.00000000
  -V(xc)+E(xc)   XCENC  =       -76.92619640
  PAW double counting   =     10191.28025469    -9790.77197018
  entropy T*S    EENTRO =        -0.00063855
  eigenvalues    EBANDS =       204.44456743
  atomic energy  EATOM  =      9323.49817503
  Solvation  Ediel_sol  =         0.00000000
  ---------------------------------------------------
  free energy    TOTEN  =       -42.27008645 eV

  energy without entropy =      -42.26944790  energy(sigma->0) =      -42.26976717


--------------------------------------------------------------------------------------------------------




 average (electrostatic) potential at core
  the test charge radii are     1.0808  1.1249
  (the norm of the test charge is              1.0000)
       1 -51.9588       2 -51.9588       3 -51.9588       4 -51.9588       5 -72.2558
       6 -72.2558       7 -72.2558       8 -72.2558       9 -72.2682      10 -72.2682
      11 -72.2682      12 -72.2682
 
 
 
 E-fermi :   6.4624     XC(G=0): -11.3129     alpha+bet :-11.6279


 k-point     1 :       0.0000    0.0000    0.0000
  band No.  band energies     occupation 
      1      -7.3912      2.00000
      2      -6.8605      2.00000
      3      -6.7418      2.00000
      4      -6.5794      2.00000
      5       0.0053      2.00000
      6       0.3545      2.00000
      7       0.3676      2.00000
      8       0.3711      2.00000
      9       0.4472      2.00000
     10       0.8012      2.00000
     11       0.9372      2.00000
     12       1.1488      2.00000
     13       1.1999      2.00000
     14       1.2033      2.00000
     15       1.2783      2.00000
     16       1.4115      2.00000
     17       1.4132      2.00000
     18       1.4925      2.00000
     19       1.5299      2.00000
     20       1.6173      2.00000
     21       1.7846      2.00000
     22       1.8198      2.00000
     23       1.9680      2.00000
     24       2.1206      2.00000
     25       2.1303      2.00000
     26       2.1876      2.00000
     27       2.2047      2.00000
     28       2.2297      2.00000
     29       2.2998      2.00000
     30       2.3549      2.00000
     31       2.4143      2.00000
     32       2.4961      2.00000
     33       2.5370      2.00000
     34       2.5401      2.00000
     35       2.7114      2.00000
     36       2.7353      2.00000
     37       2.7573      2.00000
     38       2.8748      2.00000
     39       2.8964      2.00000
     40       2.9315      2.00000
     41       2.9889      2.00000
     42       3.0023      2.00000
     43       3.1804      2.00000
     44       3.1822      2.00000
     45       3.2820      2.00000
     46       3.3133      2.00000
     47       3.5565      2.00000
     48       3.6684      2.00000
     49       4.3808      2.00000
     50       4.4076      2.00000
     51       4.4394      2.00000
     52       5.6215      2.00000
     53       5.6262      2.00000
     54       6.0547      2.00000
     55       6.2360      2.00000
     56       6.4204      1.76472
     57       6.4813      0.59227
     58       6.8687      0.00000
     59       8.0028      0.00000
     60       8.6594      0.00000
     61       9.0419      0.00000
     62      10.5323      0.00000
     63      10.6441      0.00000
     64      10.8330      0.00000
     65      11.4588      0.00000
     66      11.4918      0.00000
     67      12.0089      0.00000
     68      12.2421      0.00000
     69      12.6927      0.00000
     70      12.8391      0.00000
     71      13.2837      0.00000
     72      13.4268      0.00000
     73      14.0333      0.00000
     74      14.1189      0.00000
     75      14.3419      0.00000
     76      14.8011      0.00000
     77      14.8819      0.00000
     78      14.9363      0.00000
     79      15.4320      0.00000
     80      15.9028      0.00000

 k-point     2 :       0.1667    0.0000    0.0000
  band No.  band energies     occupation 
      1      -7.2997      2.00000
      2      -6.8405      2.00000
      3      -6.7278      2.00000
      4      -6.5849      2.00000
      5       0.0676      2.00000
      6       0.3395      2.00000
      7       0.4093      2.00000
      8       0.4729      2.00000
      9       0.6141      2.00000
     10       0.7078      2.00000
     11       0.8761      2.00000
     12       0.9986      2.00000
     13       1.1690      2.00000
     14       1.2431      2.00000
     15       1.3291      2.00000
     16       1.3833      2.00000
     17       1.4770      2.00000
     18       1.5442      2.00000
     19       1.6460      2.00000
     20       1.6588      2.00000
     21       1.8100      2.00000
     22       1.8400      2.00000
     23       1.8700      2.00000
     24       1.9271      2.00000
     25       2.1633      2.00000
     26       2.1819      2.00000
     27       2.2164      2.00000
     28       2.2720      2.00000
     29       2.3274      2.00000
     30       2.3514      2.00000
     31       2.4197      2.00000
     32       2.4313      2.00000
     33       2.5513      2.00000
     34       2.5519      2.00000
     35       2.6962      2.00000
     36       2.7002      2.00000
     37       2.7737      2.00000
     38       2.7789      2.00000
     39       2.8650      2.00000
     40       2.9049      2.00000
     41       3.0034      2.00000
     42       3.0152      2.00000
     43       3.0731      2.00000
     44       3.1112      2.00000
     45       3.2454      2.00000
     46       3.4118      2.00000
     47       3.6255      2.00000
     48       3.6734      2.00000
     49       4.0763      2.00000
     50       4.0850      2.00000
     51       4.3744      2.00000
     52       4.9368      2.00000
     53       5.6049      2.00000
     54       5.6713      2.00000
     55       5.9420      2.00000
     56       6.1570      2.00000
     57       6.8526      0.00000
     58       8.0738      0.00000
     59       8.9195      0.00000
     60       8.9542      0.00000
     61       9.7255      0.00000
     62       9.9187      0.00000
     63      10.0033      0.00000
     64      10.2630      0.00000
     65      10.8918      0.00000
     66      11.5434      0.00000
     67      11.9780      0.00000
     68      12.2961      0.00000
     69      12.3007      0.00000
     70      13.1175      0.00000
     71      13.2353      0.00000
     72      13.6076      0.00000
     73      13.8186      0.00000
     74      13.8627      0.00000
     75      14.4976      0.00000
     76      15.0328      0.00000
     77      15.2897      0.00000
     78      15.6516      0.00000
     79      16.1738      0.00000
     80      16.5969      0.00000

 k-point     3 :       0.3333    0.0000    0.0000
  band No.  band energies     occupation 
      1      -7.0736      2.00000
      2      -6.7988      2.00000
      3      -6.7041      2.00000
      4      -6.6289      2.00000
      5       0.2383      2.00000
      6       0.3232      2.00000
      7       0.4431      2.00000
      8       0.4602      2.00000
      9       0.6296      2.00000
     10       0.7800      2.00000
     11       0.8210      2.00000
     12       1.0569      2.00000
     13       1.1242      2.00000
     14       1.2391      2.00000
     15       1.4054      2.00000
     16       1.4692      2.00000
     17       1.5526      2.00000
     18       1.5612      2.00000
     19       1.6502      2.00000
     20       1.6665      2.00000
     21       1.8403      2.00000
     22       1.8423      2.00000
     23       1.9668      2.00000
     24       1.9804      2.00000
     25       2.1284      2.00000
     26       2.1572      2.00000
     27       2.1799      2.00000
     28       2.1962      2.00000
     29       2.1999      2.00000
     30       2.2842      2.00000
     31       2.3760      2.00000
     32       2.4123      2.00000
     33       2.5074      2.00000
     34       2.5259      2.00000
     35       2.6380      2.00000
     36       2.6481      2.00000
     37       2.7080      2.00000
     38       2.7572      2.00000
     39       2.8520      2.00000
     40       2.8778      2.00000
     41       2.9499      2.00000
     42       2.9665      2.00000
     43       3.1313      2.00000
     44       3.1352      2.00000
     45       3.1677      2.00000
     46       3.2603      2.00000
     47       3.2764      2.00000
     48       3.7812      2.00000
     49       3.8601      2.00000
     50       4.2406      2.00000
     51       4.3549      2.00000
     52       4.5918      2.00000
     53       4.7902      2.00000
     54       5.3215      2.00000
     55       5.5411      2.00000
     56       5.7181      2.00000
     57       7.8193      0.00000
     58       8.3739      0.00000
     59       9.1240      0.00000
     60       9.3609      0.00000
     61       9.4606      0.00000
     62       9.6320      0.00000
     63       9.9567      0.00000
     64      10.5216      0.00000
     65      11.1532      0.00000
     66      11.4029      0.00000
     67      11.7783      0.00000
     68      11.9975      0.00000
     69      12.9696      0.00000
     70      13.3676      0.00000
     71      13.7369      0.00000
     72      13.8513      0.00000
     73      13.9101      0.00000
     74      14.3454      0.00000
[...]
    --------------------------------------------
      LOOP:  cpu time   10.7167: real time   10.7470

 Broyden mixing:
  rms(total) = 0.23048E-02    rms(broyden)= 0.23048E-02
  rms(prec ) = 0.27560E-02
  weight for this iteration     100.00

 eigenvalues of (default mixing * dielectric matrix)
  average eigenvalue GAMMA=   1.6321
  2.4282  2.3051  0.8926  1.0390  1.4955

 Free energy of the ion-electron system (eV)
  ---------------------------------------------------
  -Hartree energ DENC   =        -0.51311610
  -V(xc)+E(xc)   XCENC  =         0.02016277
  PAW double counting   =         1.51648864       -1.55639257
  entropy T*S    EENTRO =         0.00000000
  eigenvalues    EBANDS =       -26.39625537
  ---------------------------------------------------
  free energy    TOTEN  =       -26.92911264 eV

  energy without entropy =      -26.92911264


----------------------------------------- Iteration    3(   8)  ---------------------------------------


   POT+DIJ:  cpu time    0.4813: real time    0.4825
    HAMIL1:  cpu time    1.9844: real time    1.9901
    LRDIAG:  cpu time    0.2429: real time    0.2435
    LRDIIS:  cpu time    6.9804: real time    6.9996
    LRDIAG:  cpu time    0.2389: real time    0.2396
    MIXING:  cpu time    0.0016: real time    0.0016
    --------------------------------------------
      LOOP:  cpu time   10.7930: real time   10.8229

 Broyden mixing:
  rms(total) = 0.54536E-03    rms(broyden)= 0.54536E-03
  rms(prec ) = 0.63138E-03
  weight for this iteration     100.00

 eigenvalues of (default mixing * dielectric matrix)
  average eigenvalue GAMMA=   1.6169
  2.6362  2.3962  1.6888  0.8927  1.0787  1.0089

 Free energy of the ion-electron system (eV)
  ---------------------------------------------------
  -Hartree energ DENC   =        -0.51433192
  -V(xc)+E(xc)   XCENC  =         0.02024845
  PAW double counting   =         1.48893333       -1.52876568
  entropy T*S    EENTRO =         0.00000000
  eigenvalues    EBANDS =       -26.39639114
  ---------------------------------------------------
  free energy    TOTEN  =       -26.93030696 eV

  energy without entropy =      -26.93030696


----------------------------------------- Iteration    3(   9)  ---------------------------------------


   POT+DIJ:  cpu time    0.4873: real time    0.4888
    HAMIL1:  cpu time    1.9654: real time    1.9708
    LRDIAG:  cpu time    0.2366: real time    0.2372
    LRDIIS:  cpu time    7.0852: real time    7.1049
    LRDIAG:  cpu time    0.2746: real time    0.2752
    MIXING:  cpu time    0.0026: real time    0.0026
    --------------------------------------------
      LOOP:  cpu time   10.9589: real time   10.9895

 Broyden mixing:
  rms(total) = 0.16543E-03    rms(broyden)= 0.16543E-03
  rms(prec ) = 0.21317E-03
  weight for this iteration     100.00

 eigenvalues of (default mixing * dielectric matrix)
  average eigenvalue GAMMA=   1.6312
  2.7644  2.3630  1.8528  1.5813  1.0461  0.8760  0.9346

 Free energy of the ion-electron system (eV)
  ---------------------------------------------------
  -Hartree energ DENC   =        -0.51462591
  -V(xc)+E(xc)   XCENC  =         0.02027338
  PAW double counting   =         1.48136713       -1.52119269
  entropy T*S    EENTRO =         0.00000000
  eigenvalues    EBANDS =       -26.39648385
  ---------------------------------------------------
  free energy    TOTEN  =       -26.93066194 eV

  energy without entropy =      -26.93066194


----------------------------------------- Iteration    3(  10)  ---------------------------------------


   POT+DIJ:  cpu time    0.4916: real time    0.4931
    HAMIL1:  cpu time    1.9759: real time    1.9814
    LRDIAG:  cpu time    0.2638: real time    0.2644
    LRDIIS:  cpu time    7.0105: real time    7.0297
    LRDIAG:  cpu time    0.2138: real time    0.2143
    MIXING:  cpu time    0.0022: real time    0.0022
    --------------------------------------------
      LOOP:  cpu time   10.7372: real time   10.7669

 Broyden mixing:
  rms(total) = 0.46353E-04    rms(broyden)= 0.46352E-04
  rms(prec ) = 0.54335E-04
  weight for this iteration     100.00

 eigenvalues of (default mixing * dielectric matrix)
  average eigenvalue GAMMA=   1.6052
  2.7086  2.4175  2.1965  1.6626  1.0430  1.0430  0.9028  0.8672

 Free energy of the ion-electron system (eV)
  ---------------------------------------------------
  -Hartree energ DENC   =        -0.51472214
  -V(xc)+E(xc)   XCENC  =         0.02028011
  PAW double counting   =         1.47982135       -1.51965301
  entropy T*S    EENTRO =         0.00000000
  eigenvalues    EBANDS =       -26.39648631
  ---------------------------------------------------
  free energy    TOTEN  =       -26.93076000 eV

  energy without entropy =      -26.93076000


----------------------------------------- Iteration    3(  11)  ---------------------------------------


   POT+DIJ:  cpu time    0.4738: real time    0.4752
    HAMIL1:  cpu time    1.9414: real time    1.9466
    LRDIAG:  cpu time    0.2480: real time    0.2487
    LRDIIS:  cpu time    6.7388: real time    6.7572
    LRDIAG:  cpu time    0.2236: real time    0.2242
    MIXING:  cpu time    0.0015: real time    0.0015
    --------------------------------------------
      LOOP:  cpu time   10.4509: real time   10.4798

 Broyden mixing:
  rms(total) = 0.14726E-04    rms(broyden)= 0.14726E-04
  rms(prec ) = 0.19456E-04
  weight for this iteration     100.00

 eigenvalues of (default mixing * dielectric matrix)
  average eigenvalue GAMMA=   1.6520
  2.7825  2.4012  2.2679  1.9463  1.6553  1.0228  1.0228  0.8983  0.8708

 Free energy of the ion-electron system (eV)
  ---------------------------------------------------
  -Hartree energ DENC   =        -0.51472091
  -V(xc)+E(xc)   XCENC  =         0.02027986
  PAW double counting   =         1.47986652       -1.51969947
  entropy T*S    EENTRO =         0.00000000
  eigenvalues    EBANDS =       -26.39648181
  ---------------------------------------------------
  free energy    TOTEN  =       -26.93075581 eV

  energy without entropy =      -26.93075581


----------------------------------------- Iteration    3(  12)  ---------------------------------------


   POT+DIJ:  cpu time    0.4820: real time    0.4831
    HAMIL1:  cpu time    1.9742: real time    1.9798
    LRDIAG:  cpu time    0.2421: real time    0.2427
    LRDIIS:  cpu time    6.8867: real time    6.9057
    LRDIAG:  cpu time    0.2356: real time    0.2362
    MIXING:  cpu time    0.0017: real time    0.0017
    --------------------------------------------
      LOOP:  cpu time   10.7008: real time   10.7304

 Broyden mixing:
  rms(total) = 0.32874E-05    rms(broyden)= 0.32874E-05
  rms(prec ) = 0.42679E-05
  weight for this iteration     100.00

 eigenvalues of (default mixing * dielectric matrix)
  average eigenvalue GAMMA=   1.6444
  2.8098  2.4484  2.4484  1.9532  1.6196  1.3616  1.0181  1.0181  0.8966  0.8697

 Free energy of the ion-electron system (eV)
  ---------------------------------------------------
  -Hartree energ DENC   =        -0.51472484
  -V(xc)+E(xc)   XCENC  =         0.02028040
  PAW double counting   =         1.47985498       -1.51968849
  entropy T*S    EENTRO =         0.00000000
  eigenvalues    EBANDS =       -26.39648609
  ---------------------------------------------------
  free energy    TOTEN  =       -26.93076403 eV

  energy without entropy =      -26.93076403


----------------------------------------- Iteration    3(  13)  ---------------------------------------


   POT+DIJ:  cpu time    0.4871: real time    0.4885
    HAMIL1:  cpu time    2.0700: real time    2.0758
    LRDIAG:  cpu time    0.2652: real time    0.2659
    LRDIIS:  cpu time    5.6199: real time    5.6355
    LRDIAG:  cpu time    0.2905: real time    0.2912
    MIXING:  cpu time    0.0021: real time    0.0021
    --------------------------------------------
      LOOP:  cpu time    9.5709: real time    9.5976

 Broyden mixing:
  rms(total) = 0.90458E-06    rms(broyden)= 0.90458E-06
  rms(prec ) = 0.12381E-05
  weight for this iteration     100.00

 eigenvalues of (default mixing * dielectric matrix)
  average eigenvalue GAMMA=   1.6480
  2.8241  2.5601  2.3849  2.1378  1.7471  1.6488  1.0314  1.0314  1.0026  0.8933
  0.8669

 Free energy of the ion-electron system (eV)
  ---------------------------------------------------
  -Hartree energ DENC   =        -0.51472479
  -V(xc)+E(xc)   XCENC  =         0.02028045
  PAW double counting   =         1.47988470       -1.51971831
  entropy T*S    EENTRO =         0.00000000
  eigenvalues    EBANDS =       -26.39648627
  ---------------------------------------------------
  free energy    TOTEN  =       -26.93076422 eV

  energy without entropy =      -26.93076422


------------------------ aborting loop because EDIFF is reached ----------------------------------------


 change of polarisation eV/A/(eV/A) component  3 :     3.785    -0.322    53.307
 dielectric tensor                  component  3 :     2.955    -0.251    42.617


--------------------------------------------------------------------------------------------------------


    FORLOC:  cpu time    0.0069: real time    0.0070
    FORNL :  cpu time    2.6172: real time    2.6245
    STRESS:  cpu time    7.4206: real time    7.4410
    FORCOR:  cpu time    0.0362: real time    0.0363
    OFIELD:  cpu time    0.0002: real time    0.0002
    FORLOC:  cpu time    0.0058: real time    0.0058
    FORNL :  cpu time    2.6239: real time    2.6310
    STRESS:  cpu time    7.3638: real time    7.3839
    FORCOR:  cpu time    0.0355: real time    0.0356
    OFIELD:  cpu time    0.0003: real time    0.0003
    FORNLD:  cpu time    4.9147: real time    4.9279

 PIEZOELECTRIC TENSOR FIELD DIRECTION 3  (e Angst)
 -----------------------------------------------------------------------------
     0.00113  0.00000 -0.00869           ( -0.00003  0.00000 -0.00006)
     0.00000 -0.00075  0.00000           (  0.00000  0.00004  0.00000)
    -0.00869  0.00000  0.00297           ( -0.00006  0.00000  0.00006)

 PIEZOELECTRIC TENSOR FIELD DIRECTION 3  (C/m^2)
 -----------------------------------------------------------------------------
     0.00008  0.00000 -0.00060
     0.00000 -0.00005  0.00000
    -0.00060  0.00000  0.00021


      POSITION         DIRECTION 3           BORN EFFECTIVE CHARGE    (rigid.aug.   ionic)
 -----------------------------------------------------------------------------------------
      1.08767      1.71003      1.19607     0.07997  0.45895 -2.76248 (  1.12503  6.00000)
      0.06377      5.15382      2.61365     0.08007 -0.45838 -2.76262 (  1.12503  6.00000)
      1.21520      5.17755      6.42337     0.08007  0.45838 -2.76262 (  1.12503  6.00000)
      2.23910      1.73376      5.00580     0.07997 -0.45895 -2.76248 (  1.12503  6.00000)
      2.67067      0.15459      2.59390     0.03844 -0.08860  1.17706 ( -5.28579 11.00000)
      2.89935      3.59838      1.22230     0.03835  0.08916  1.17535 ( -5.28579 11.00000)
     -0.36780      6.73299      5.02555     0.03835 -0.08916  1.17535 ( -5.28579 11.00000)
     -0.59649      3.28920      6.39715     0.03844  0.08860  1.17706 ( -5.28579 11.00000)
      0.00314      2.48466      3.55701    -0.11546  0.02243  1.56768 ( -5.29190 11.00000)
      1.14829      5.92845      0.25272    -0.11497 -0.02282  1.56696 ( -5.29190 11.00000)
      2.29972      4.40292      4.06244    -0.11497  0.02282  1.56696 ( -5.29190 11.00000)
      1.15458      0.95913      7.36673    -0.11546 -0.02243  1.56768 ( -5.29190 11.00000)
 -----------------------------------------------------------------------------------------
    total drift (improves with k-points):   0.01280  0.00000 -0.07611




--------------------------------------------------------------------------------------------------------


  LATTYP: Found a simple monoclinic cell.
 ALAT       =     7.9598479568
 B/A-ratio  =     0.8652905291
 C/A-ratio  =     1.9138015458
 COS(beta)  =    -0.9607173428
  
  Lattice vectors:
  
 A1 = (  -2.3028649100,   0.0000000000,  -7.6194483200)
 A2 = (   0.0000000000,  -6.8875810500,   0.0000000000)
 A3 = (   0.1871440700,   0.0000000000,  15.2324197500)


Analysis of symmetry for initial positions (statically):
=====================================================================
 Subroutine PRICEL returns:
 Original cell was already a primitive cell.
 

 Routine SETGRP: Setting up the symmetry group for a 
 simple monoclinic supercell.


 Subroutine GETGRP returns: Found  4 space group operations
 (whereof  2 operations were pure point group operations)
 out of a pool of  4 trial point group operations.


The static configuration has the point symmetry S_2 .
 The point group associated with its full space group is C_2h.


Analysis of symmetry for dynamics (positions and initial velocities):
=====================================================================
 Subroutine PRICEL returns:
 Original cell was already a primitive cell.
 

 Routine SETGRP: Setting up the symmetry group for a 
 simple monoclinic supercell.


 Subroutine GETGRP returns: Found  4 space group operations
 (whereof  2 operations were pure point group operations)
 out of a pool of  4 trial point group operations.


The dynamic configuration has the point symmetry S_2 .
 The point group associated with its full space group is C_2h.


 Subroutine INISYM returns: Found  4 space group operations
 (whereof  2 operations are pure point group operations),
 and found     1 'primitive' translations



 MACROSCOPIC STATIC DIELECTRIC TENSOR (including local field effects in DFT)
 ------------------------------------------------------
          22.625516     0.000000     2.954890
           0.000000    22.411710     0.000000
           2.955005     0.000000    42.617117
 ------------------------------------------------------



--------------------------------------------------------------------------------------------------------


  LATTYP: Found a simple monoclinic cell.
 ALAT       =     7.9598479568
 B/A-ratio  =     0.8652905291
 C/A-ratio  =     1.9138015458
 COS(beta)  =    -0.9607173428
  
  Lattice vectors:
  
 A1 = (  -2.3028649100,   0.0000000000,  -7.6194483200)
 A2 = (   0.0000000000,  -6.8875810500,   0.0000000000)
 A3 = (   0.1871440700,   0.0000000000,  15.2324197500)


Analysis of symmetry for initial positions (statically):
=====================================================================
 Subroutine PRICEL returns:
 Original cell was already a primitive cell.
 

 Routine SETGRP: Setting up the symmetry group for a 
 simple monoclinic supercell.


 Subroutine GETGRP returns: Found  4 space group operations
 (whereof  2 operations were pure point group operations)
 out of a pool of  4 trial point group operations.


The static configuration has the point symmetry S_2 .
 The point group associated with its full space group is C_2h.


Analysis of symmetry for dynamics (positions and initial velocities):
=====================================================================
 Subroutine PRICEL returns:
 Original cell was already a primitive cell.
 

 Routine SETGRP: Setting up the symmetry group for a 
 simple monoclinic supercell.


 Subroutine GETGRP returns: Found  4 space group operations
 (whereof  2 operations were pure point group operations)
 out of a pool of  4 trial point group operations.


The dynamic configuration has the point symmetry S_2 .
 The point group associated with its full space group is C_2h.


 Subroutine INISYM returns: Found  4 space group operations
 (whereof  2 operations are pure point group operations),
 and found     1 'primitive' translations



--------------------------------------------------------------------------------------------------------




 MACROSCOPIC STATIC DIELECTRIC TENSOR (including local field effects in DFT)
 ------------------------------------------------------
          22.625516     0.000000     2.954890
           0.000000    22.411710     0.000000
           2.955005     0.000000    42.617117
 ------------------------------------------------------


 PIEZOELECTRIC TENSOR  for field in x, y, z        (e  Angst)
          XX          YY          ZZ          XY          YZ          ZX
  --------------------------------------------------------------------------------
  x     0.00435     0.00136    -0.00989     0.00000     0.00000     0.00007
  y    -0.00035    -0.00614     0.00914     0.00000     0.00000     0.00293
  z     0.00113    -0.00075     0.00297     0.00000     0.00000    -0.00869

 PIEZOELECTRIC TENSOR  for field in x, y, z        (C/m^2)
          XX          YY          ZZ          XY          YZ          ZX
  --------------------------------------------------------------------------------
  x     0.00000     0.00000     0.00000     0.00000     0.00000     0.00000
  y     0.00000     0.00000     0.00000     0.00000     0.00000     0.00000
  z     0.00000     0.00000     0.00000     0.00000     0.00000     0.00000
 
 BORN EFFECTIVE CHARGES (in e, cummulative output)
 -------------------------------------------------
 ion    1
    1    -2.86974    -0.30189     0.09349
    2    -0.08959    -2.73671    -0.30151
    3     0.07891     0.45895    -2.75614
 ion    2
    1    -2.86849     0.30217     0.09566
    2     0.08959    -2.73671     0.30151
    3     0.07901    -0.45838    -2.75627
 ion    3
    1    -2.86849    -0.30217     0.09566
    2    -0.08926    -2.73610    -0.30334
    3     0.07901     0.45838    -2.75627
 ion    4
    1    -2.86974     0.30189     0.09349
    2     0.08926    -2.73610     0.30334
    3     0.07891    -0.45895    -2.75614
 ion    5
    1     1.31469    -0.30809     0.05141
    2    -0.64446     1.37459     0.09466
    3     0.03737    -0.08860     1.18340
 ion    6
    1     1.31579     0.30835     0.05125
    2     0.64446     1.37459    -0.09466
    3     0.03728     0.08916     1.18169
 ion    7
    1     1.31579    -0.30835     0.05125
    2    -0.64492     1.37420     0.09440
    3     0.03728    -0.08916     1.18169
 ion    8
    1     1.31469     0.30809     0.05141
    2     0.64492     1.37420    -0.09440
    3     0.03737     0.08860     1.18340
 ion    9
    1     1.55398    -0.07711    -0.14561
    2    -0.02899     1.36299    -0.05235
    3    -0.11653     0.02243     1.57402
 ion   10
    1     1.55378     0.07631    -0.14619
    2     0.02899     1.36299     0.05235
    3    -0.11603    -0.02282     1.57330
 ion   11
    1     1.55378    -0.07631    -0.14619
    2    -0.02870     1.36103    -0.05397
    3    -0.11603     0.02282     1.57330
 ion   12
    1     1.55398     0.07711    -0.14561
    2     0.02870     1.36103     0.05397
    3    -0.11653    -0.02243     1.57402


--------------------------------------------------------------------------------------------------------


     LOOP+:  cpu time 1116.8506: real time 1120.1979
    4ORBIT:  cpu time    0.0000: real time    0.0000

 total amount of memory used by VASP MPI-rank0   183324. kBytes
=======================================================================

   base      :      30000. kBytes
   nonl-proj :     107888. kBytes
   fftplans  :      10552. kBytes
   grid      :      10560. kBytes
   one-center:        186. kBytes
   wavefun   :      24138. kBytes
 
  
  
 General timing and accounting informations for this job:
 ========================================================
  
                  Total CPU time used (sec):     1121.789
                            User time (sec):     1111.655
                          System time (sec):       10.134
                         Elapsed time (sec):     1125.230
  
                   Maximum memory used (kb):      513444.
                   Average memory used (kb):           0.
  
                          Minor page faults:       500841
                          Major page faults:           11
                 Voluntary context switches:         2970
