<?xml version="1.0" encoding="ISO-8859-1"?>
<modeling>
 <generator>
  <i name="program" type="string">vasp </i>
  <i name="version" type="string">5.4.4.18Apr17-6-g9f103f2a35  </i>
  <i name="subversion" type="string">(build Jul 30 2020 14:31:59) complex            parallel </i>
  <i name="platform" type="string">LinuxIFC </i>
  <i name="date" type="string">2020 11 04 </i>
  <i name="time" type="string">04:57:33 </i>
 </generator>
 <incar>
  <i type="string" name="PREC">accurate</i>
  <i type="string" name="ALGO"> normal</i>
  <i type="logical" name="ADDGRID"> T  </i>
  <i type="int" name="ISPIN">     1</i>
  <i type="int" name="NELM">   200</i>
  <i type="int" name="NELMIN">     8</i>
  <i name="EDIFF">      0.00000001</i>
  <i type="int" name="ISIF">     3</i>
  <i name="ENCUT">    650.00000000</i>
  <i type="logical" name="LREAL"> F  </i>
  <i type="int" name="ISMEAR">     0</i>
  <i name="SIGMA">      0.05000000</i>
  <i type="logical" name="LWAVE"> F  </i>
  <i type="logical" name="LASPH"> T  </i>
  <v type="int" name="KPOINT_BSE">    -1     0     0     0</v>
  <i type="int" name="NELM">   200</i>
  <i type="string" name="GGA"> ps</i>
  <i type="logical" name="LEPSILON"> T  </i>
  <i type="logical" name="LASPH"> T  </i>
 </incar>
 <structure name="primitive_cell" >
  <crystal>
   <varray name="basis" >
    <v>       4.41858575       0.00000000       0.00647689 </v>
    <v>       0.00000000       6.88758105       0.00000000 </v>
    <v>      -2.11572084       0.00000000       7.61297143 </v>
   </varray>
   <i name="volume">    231.78273967 </i>
   <varray name="rec_basis" >
    <v>       0.22622460       0.00000000       0.06287008 </v>
    <v>       0.00000000       0.14518885       0.00000000 </v>
    <v>      -0.00019247       0.00000000       0.13130127 </v>
   </varray>
  </crystal>
  <varray name="positions" >
   <v>       0.32125411       0.24827764       0.15683651 </v>
   <v>      -0.26724887      -0.47755481       0.15993152 </v>
   <v>      -0.23275117       0.02244519       0.34006836 </v>
   <v>       0.22434047       0.36074499       0.46703901 </v>
   <v>      -0.27565953       0.13925501      -0.03296099 </v>
   <v>       0.27565948      -0.13925501       0.03296087 </v>
   <v>       0.26724883       0.47755481      -0.15993164 </v>
   <v>       0.17874584      -0.25172236       0.34316337 </v>
   <v>      -0.17874589       0.25172236      -0.34316349 </v>
   <v>      -0.22434052      -0.36074499      -0.46703913 </v>
   <v>       0.23275113      -0.02244519      -0.34006848 </v>
   <v>      -0.32125416      -0.24827764      -0.15683663 </v>
  </varray>
 </structure>
 <varray name="primitive_index" >
  <v type="int" >        1 </v>
  <v type="int" >        6 </v>
  <v type="int" >        5 </v>
  <v type="int" >        9 </v>
  <v type="int" >       12 </v>
  <v type="int" >       10 </v>
  <v type="int" >        8 </v>
  <v type="int" >        2 </v>
  <v type="int" >        4 </v>
  <v type="int" >       11 </v>
  <v type="int" >        7 </v>
  <v type="int" >        3 </v>
 </varray>
 <kpoints>
  <generation param="Gamma">
   <v type="int" name="divisions">       6        4        4 </v>
   <v name="usershift">      0.00000000       0.00000000       0.00000000 </v>
   <v name="genvec1">      0.16666667       0.00000000      -0.00000000 </v>
   <v name="genvec2">      0.00000000       0.25000000       0.00000000 </v>
   <v name="genvec3">      0.00000000       0.00000000       0.25000000 </v>
   <v name="shift">      0.00000000       0.00000000       0.00000000 </v>
  </generation>
  <varray name="kpointlist" >
   <v>       0.00000000       0.00000000       0.00000000 </v>
   <v>       0.16666667       0.00000000       0.00000000 </v>
   <v>       0.33333333       0.00000000       0.00000000 </v>
   <v>       0.50000000       0.00000000       0.00000000 </v>
   <v>       0.00000000       0.25000000       0.00000000 </v>
   <v>       0.16666667       0.25000000       0.00000000 </v>
   <v>       0.33333333       0.25000000       0.00000000 </v>
   <v>       0.50000000       0.25000000       0.00000000 </v>
   <v>       0.00000000       0.50000000       0.00000000 </v>
   <v>       0.16666667       0.50000000       0.00000000 </v>
   <v>       0.33333333       0.50000000       0.00000000 </v>
   <v>       0.50000000       0.50000000       0.00000000 </v>
   <v>      -0.00000000       0.00000000       0.25000000 </v>
   <v>       0.16666667       0.00000000       0.25000000 </v>
   <v>       0.33333333       0.00000000       0.25000000 </v>
   <v>       0.50000000       0.00000000       0.25000000 </v>
   <v>      -0.33333333       0.00000000       0.25000000 </v>
   <v>      -0.16666667       0.00000000       0.25000000 </v>
   <v>      -0.00000000       0.25000000       0.25000000 </v>
   <v>       0.16666667       0.25000000       0.25000000 </v>
   <v>       0.33333333       0.25000000       0.25000000 </v>
   <v>       0.50000000       0.25000000       0.25000000 </v>
   <v>      -0.33333333       0.25000000       0.25000000 </v>
   <v>      -0.16666667       0.25000000       0.25000000 </v>
   <v>      -0.00000000       0.50000000       0.25000000 </v>
   <v>       0.16666667       0.50000000       0.25000000 </v>
   <v>       0.33333333       0.50000000       0.25000000 </v>
   <v>       0.50000000       0.50000000       0.25000000 </v>
   <v>      -0.33333333       0.50000000       0.25000000 </v>
   <v>      -0.16666667       0.50000000       0.25000000 </v>
   <v>      -0.00000000       0.00000000       0.50000000 </v>
   <v>       0.16666667       0.00000000       0.50000000 </v>
   <v>       0.33333333       0.00000000       0.50000000 </v>
   <v>       0.50000000       0.00000000       0.50000000 </v>
   <v>      -0.00000000       0.25000000       0.50000000 </v>
   <v>       0.16666667       0.25000000       0.50000000 </v>
   <v>       0.33333333       0.25000000       0.50000000 </v>
   <v>       0.50000000       0.25000000       0.50000000 </v>
   <v>      -0.00000000       0.50000000       0.50000000 </v>
   <v>       0.16666667       0.50000000       0.50000000 </v>
   <v>       0.33333333       0.50000000       0.50000000 </v>
   <v>       0.50000000       0.50000000       0.50000000 </v>
  </varray>
  <varray name="weights" >
   <v>       0.01041667 </v>
   <v>       0.02083333 </v>
   <v>       0.02083333 </v>
   <v>       0.01041667 </v>
   <v>       0.02083333 </v>
   <v>       0.04166667 </v>
   <v>       0.04166667 </v>
   <v>       0.02083333 </v>
   <v>       0.01041667 </v>
   <v>       0.02083333 </v>
   <v>       0.02083333 </v>
   <v>       0.01041667 </v>
   <v>       0.02083333 </v>
   <v>       0.02083333 </v>
   <v>       0.02083333 </v>
   <v>       0.02083333 </v>
   <v>       0.02083333 </v>
   <v>       0.02083333 </v>
   <v>       0.04166667 </v>
   <v>       0.04166667 </v>
   <v>       0.04166667 </v>
   <v>       0.04166667 </v>
   <v>       0.04166667 </v>
   <v>       0.04166667 </v>
   <v>       0.02083333 </v>
   <v>       0.02083333 </v>
   <v>       0.02083333 </v>
   <v>       0.02083333 </v>
   <v>       0.02083333 </v>
   <v>       0.02083333 </v>
   <v>       0.01041667 </v>
   <v>       0.02083333 </v>
   <v>       0.02083333 </v>
   <v>       0.01041667 </v>
   <v>       0.02083333 </v>
   <v>       0.04166667 </v>
   <v>       0.04166667 </v>
   <v>       0.02083333 </v>
   <v>       0.01041667 </v>
   <v>       0.02083333 </v>
   <v>       0.02083333 </v>
   <v>       0.01041667 </v>
  </varray>
 </kpoints>
 <parameters>
  <separator name="general" >
   <i type="string" name="SYSTEM">unknown system</i>
   <i type="logical" name="LCOMPAT"> F  </i>
  </separator>
  <separator name="electronic" >
   <i type="string" name="PREC">accura</i>
   <i name="ENMAX">    650.00000000</i>
   <i name="ENAUG">    446.84200000</i>
   <i name="EDIFF">      0.00000001</i>
   <i type="int" name="IALGO">    38</i>
   <i type="int" name="IWAVPR">    10</i>
   <i type="int" name="NBANDS">    80</i>
   <i name="NELECT">    112.00000000</i>
   <i type="int" name="TURBO">     0</i>
   <i type="int" name="IRESTART">     0</i>
   <i type="int" name="NREBOOT">     0</i>
   <i type="int" name="NMIN">     0</i>
   <i name="EREF">      0.00000000</i>
   <separator name="electronic smearing" >
    <i type="int" name="ISMEAR">     0</i>
    <i name="SIGMA">      0.05000000</i>
    <i name="KSPACING">      0.50000000</i>
    <i type="logical" name="KGAMMA"> T  </i>
   </separator>
   <separator name="electronic projectors" >
    <i type="logical" name="LREAL"> F  </i>
    <v name="ROPT">      0.00000000      0.00000000</v>
    <i type="int" name="LMAXPAW">  -100</i>
    <i type="int" name="LMAXMIX">     2</i>
    <i type="logical" name="NLSPLINE"> F  </i>
   </separator>
   <separator name="electronic startup" >
    <i type="int" name="ISTART">     0</i>
    <i type="int" name="ICHARG">     2</i>
    <i type="int" name="INIWAV">     1</i>
   </separator>
   <separator name="electronic spin" >
    <i type="int" name="ISPIN">     1</i>
    <i type="logical" name="LNONCOLLINEAR"> F  </i>
    <v name="MAGMOM">      1.00000000      1.00000000      1.00000000      1.00000000      1.00000000      1.00000000      1.00000000      1.00000000      1.00000000      1.00000000      1.00000000      1.00000000</v>
    <i name="NUPDOWN">     -1.00000000</i>
    <i type="logical" name="LSORBIT"> F  </i>
    <v name="SAXIS">      0.00000000      0.00000000      1.00000000</v>
    <i type="logical" name="LSPIRAL"> F  </i>
    <v name="QSPIRAL">      0.00000000      0.00000000      0.00000000</v>
    <i type="logical" name="LZEROZ"> F  </i>
   </separator>
   <separator name="electronic exchange-correlation" >
    <i type="logical" name="LASPH"> T  </i>
    <i type="logical" name="LMETAGGA"> F  </i>
   </separator>
   <separator name="electronic convergence" >
    <i type="int" name="NELM">   200</i>
    <i type="int" name="NELMDL">    -5</i>
    <i type="int" name="NELMIN">     8</i>
    <i name="ENINI">    650.00000000</i>
    <separator name="electronic convergence detail" >
     <i type="logical" name="LDIAG"> T  </i>
     <i type="logical" name="LSUBROT"> F  </i>
     <i name="WEIMIN">      0.00000000</i>
     <i name="EBREAK">      0.00000000</i>
     <i name="DEPER">      0.30000000</i>
     <i type="int" name="NRMM">     4</i>
     <i name="TIME">      0.40000000</i>
    </separator>
   </separator>
   <separator name="electronic mixer" >
    <i name="AMIX">      0.40000000</i>
    <i name="BMIX">      1.00000000</i>
    <i name="AMIN">      0.10000000</i>
    <i name="AMIX_MAG">      1.60000000</i>
    <i name="BMIX_MAG">      1.00000000</i>
    <separator name="electronic mixer details" >
     <i type="int" name="IMIX">     4</i>
     <i type="logical" name="MIXFIRST"> F  </i>
     <i type="int" name="MAXMIX">   -45</i>
     <i name="WC">    100.00000000</i>
     <i type="int" name="INIMIX">     1</i>
     <i type="int" name="MIXPRE">     1</i>
     <i type="int" name="MREMOVE">     5</i>
    </separator>
   </separator>
   <separator name="electronic dipolcorrection" >
    <i type="logical" name="LDIPOL"> F  </i>
    <i type="logical" name="LMONO"> F  </i>
    <i type="int" name="IDIPOL">     0</i>
    <i name="EPSILON">      1.00000000</i>
    <v name="DIPOL">   -100.00000000   -100.00000000   -100.00000000</v>
    <i name="EFIELD">      0.00000000</i>
   </separator>
  </separator>
  <separator name="grids" >
   <i type="int" name="NGX">    40</i>
   <i type="int" name="NGY">    60</i>
   <i type="int" name="NGZ">    70</i>
   <i type="int" name="NGXF">    80</i>
   <i type="int" name="NGYF">   120</i>
   <i type="int" name="NGZF">   140</i>
   <i type="logical" name="ADDGRID"> T  </i>
  </separator>
  <separator name="ionic" >
   <i type="int" name="NSW">     0</i>
   <i type="int" name="IBRION">    -1</i>
   <i type="int" name="MDALGO">     0</i>
   <i type="int" name="ISIF">     3</i>
   <i name="PSTRESS">      0.00000000</i>
   <i name="EDIFFG">      0.00000010</i>
   <i type="int" name="NFREE">     0</i>
   <i name="POTIM">      0.50000000</i>
   <i name="SMASS">     -3.00000000</i>
   <i name="SCALEE">      1.00000000</i>
  </separator>
  <separator name="ionic md" >
   <i name="TEBEG">      0.00010000</i>
   <i name="TEEND">      0.00010000</i>
   <i type="int" name="NBLOCK">     1</i>
   <i type="int" name="KBLOCK">     1</i>
   <i type="int" name="NPACO">   256</i>
   <i name="APACO">     16.00000000</i>
  </separator>
  <separator name="symmetry" >
   <i type="int" name="ISYM">     2</i>
   <i name="SYMPREC">      0.00001000</i>
  </separator>
  <separator name="dos" >
   <i type="int" name="LORBIT">     0</i>
   <v name="RWIGS">     -1.00000000     -1.00000000</v>
   <i type="int" name="NEDOS">   301</i>
   <i name="EMIN">     10.00000000</i>
   <i name="EMAX">    -10.00000000</i>
   <i name="EFERMI">      0.00000000</i>
  </separator>
  <separator name="writing" >
   <i type="int" name="NWRITE">     2</i>
   <i type="logical" name="LWAVE"> F  </i>
   <i type="logical" name="LDOWNSAMPLE"> F  </i>
   <i type="logical" name="LCHARG"> T  </i>
   <i type="logical" name="LPARD"> F  </i>
   <i type="logical" name="LVTOT"> F  </i>
   <i type="logical" name="LVHAR"> F  </i>
   <i type="logical" name="LELF"> F  </i>
   <i type="logical" name="LOPTICS"> F  </i>
   <v name="STM">      0.00000000      0.00000000      0.00000000      0.00000000      0.00000000      0.00000000      0.00000000</v>
  </separator>
  <separator name="performance" >
   <i type="int" name="NPAR">    20</i>
   <i type="int" name="NSIM">     4</i>
   <i type="int" name="NBLK">    -1</i>
   <i type="logical" name="LPLANE"> T  </i>
   <i type="logical" name="LSCALAPACK"> T  </i>
   <i type="logical" name="LSCAAWARE"> F  </i>
   <i type="logical" name="LSCALU"> F  </i>
   <i type="logical" name="LASYNC"> F  </i>
   <i type="logical" name="LORBITALREAL"> F  </i>
  </separator>
  <separator name="miscellaneous" >
   <i type="int" name="IDIOT">     3</i>
   <i type="int" name="ISPECIAL">     0</i>
   <i type="logical" name="LMUSIC"> F  </i>
   <v name="POMASS">     78.96000000    107.86800000</v>
   <v name="DARWINR">      0.00000000      0.00000000</v>
   <v name="DARWINV">      1.00000000      1.00000000</v>
   <i type="logical" name="LCORR"> T  </i>
  </separator>
  <i type="logical" name="GGA_COMPAT"> T  </i>
  <i type="logical" name="LBERRY"> F  </i>
  <i type="int" name="ICORELEVEL">     0</i>
  <i type="logical" name="LDAU"> F  </i>
  <i type="int" name="I_CONSTRAINED_M">     0</i>
  <separator name="electronic exchange-correlation" >
   <i type="string" name="GGA">PS</i>
   <i type="int" name="VOSKOWN">     0</i>
   <i type="logical" name="LHFCALC"> F  </i>
   <i type="string" name="PRECFOCK"></i>
   <i type="logical" name="LSYMGRAD"> F  </i>
   <i type="logical" name="LHFONE"> F  </i>
   <i type="logical" name="LRHFCALC"> F  </i>
   <i type="logical" name="LTHOMAS"> F  </i>
   <i type="logical" name="LMODELHF"> F  </i>
   <i name="ENCUT4O">     -1.00000000</i>
   <i type="int" name="EXXOEP">     0</i>
   <i type="int" name="FOURORBIT">     0</i>
   <i name="AEXX">      0.00000000</i>
   <i name="HFALPHA">      0.00000000</i>
   <i name="MCALPHA">      0.00000000</i>
   <i name="ALDAX">      1.00000000</i>
   <i name="AGGAX">      1.00000000</i>
   <i name="ALDAC">      1.00000000</i>
   <i name="AGGAC">      1.00000000</i>
   <i type="int" name="NKREDX">     1</i>
   <i type="int" name="NKREDY">     1</i>
   <i type="int" name="NKREDZ">     1</i>
   <i type="logical" name="SHIFTRED"> F  </i>
   <i type="logical" name="ODDONLY"> F  </i>
   <i type="logical" name="EVENONLY"> F  </i>
   <i type="int" name="LMAXFOCK">     0</i>
   <i type="int" name="NMAXFOCKAE">     0</i>
   <i type="logical" name="LFOCKAEDFT"> F  </i>
   <i name="HFSCREEN">      0.00000000</i>
   <i name="HFSCREENC">      0.00000000</i>
   <i type="int" name="NBANDSGWLOW">     0</i>
  </separator>
  <separator name="vdW DFT" >
   <i type="logical" name="LUSE_VDW"> F  </i>
   <i name="Zab_VDW">     -0.84910000</i>
   <i name="PARAM1">      0.12340000</i>
   <i name="PARAM2">      1.00000000</i>
   <i name="PARAM3">      0.00000000</i>
  </separator>
  <separator name="model GW" >
   <i type="int" name="MODEL_GW">     0</i>
   <i name="MODEL_EPS0">     11.58913698</i>
   <i name="MODEL_ALPHA">      1.00000000</i>
  </separator>
  <separator name="linear response parameters" >
   <i type="logical" name="LEPSILON"> T  </i>
   <i type="logical" name="LRPA"> F  </i>
   <i type="logical" name="LNABLA"> F  </i>
   <i type="logical" name="LVEL"> F  </i>
   <i type="int" name="KINTER">     0</i>
   <i name="CSHIFT">      0.10000000</i>
   <i name="OMEGAMAX">     -1.00000000</i>
   <i name="DEG_THRESHOLD">      0.00200000</i>
   <i name="RTIME">     -0.10000000</i>
   <i name="WPLASMAI">      0.00000000</i>
   <v name="DFIELD">      0.00000000      0.00000000      0.00000000</v>
   <v name="WPLASMA">      0.00000000      0.00000000      0.00000000      0.00000000      0.00000000      0.00000000      0.00000000      0.00000000      0.00000000</v>
  </separator>
  <separator name="orbital magnetization" >
   <i type="logical" name="NUCIND"> F  </i>
   <v name="MAGPOS">      0.00000000      0.00000000      0.00000000</v>
   <i type="logical" name="LNICSALL"> T  </i>
   <i type="logical" name="ORBITALMAG"> F  </i>
   <i type="logical" name="LMAGBLOCH"> F  </i>
   <i type="logical" name="LCHIMAG"> F  </i>
   <i type="logical" name="LGAUGE"> T  </i>
   <i type="int" name="MAGATOM">     0</i>
   <v name="MAGDIPOL">      0.00000000      0.00000000      0.00000000</v>
   <v name="AVECCONST">      0.00000000      0.00000000      0.00000000</v>
  </separator>
  <separator name="response functions" >
   <i type="logical" name="LADDER"> F  </i>
   <i type="logical" name="LRPAFORCE"> F  </i>
   <i type="logical" name="LFXC"> F  </i>
   <i type="logical" name="LHARTREE"> T  </i>
   <i type="int" name="IBSE">     0</i>
   <v type="int" name="KPOINT">    -1     0     0     0</v>
   <i type="logical" name="LTCTE"> F  </i>
   <i type="logical" name="LTETE"> F  </i>
   <i type="logical" name="LTRIPLET"> F  </i>
   <i type="logical" name="LFXCEPS"> F  </i>
   <i type="logical" name="LFXHEG"> F  </i>
   <i type="int" name="NATURALO">     2</i>
   <i type="logical" name="L2ORDER"> F  </i>
   <i type="logical" name="LMP2LT"> F  </i>
   <i type="logical" name="LUSEW"> F  </i>
   <i name="ENCUTGW">     -2.00000000</i>
   <i name="ENCUTGWSOFT">     -2.00000000</i>
   <i name="ENCUTLF">     -1.00000000</i>
   <i type="int" name="LMAXMP2">    -1</i>
   <i name="SCISSOR">      0.00000000</i>
   <i type="int" name="NOMEGA">     0</i>
   <i type="int" name="NOMEGAR">     0</i>
   <i type="int" name="NBANDSGW">    -1</i>
   <i type="int" name="NBANDSO">    -1</i>
   <i type="int" name="NBANDSV">    -1</i>
   <i type="int" name="NELM">   200</i>
   <i type="int" name="NELMHF">     1</i>
   <i type="int" name="DIM">     3</i>
   <i type="int" name="ANTIRES">     0</i>
   <i name="OMEGAMAX">    -30.00000000</i>
   <i name="OMEGAMIN">    -30.00000000</i>
   <i name="OMEGATL">   -200.00000000</i>
   <i type="int" name="OMEGAGRID">   140</i>
   <i name="CSHIFT">     -0.10000000</i>
   <i type="logical" name="SELFENERGY"> F  </i>
   <i type="logical" name="LSPECTRAL"> F  </i>
   <i type="logical" name="LSPECTRALGW"> F  </i>
   <i type="logical" name="LSINGLES"> F  </i>
   <i type="logical" name="LFERMIGW"> F  </i>
   <i type="logical" name="ODDONLYGW"> F  </i>
   <i type="logical" name="EVENONLYGW"> F  </i>
   <i type="int" name="NKREDLFX">     1</i>
   <i type="int" name="NKREDLFY">     1</i>
   <i type="int" name="NKREDLFZ">     1</i>
   <i type="int" name="MAXMEM">  2800</i>
   <i type="int" name="TELESCOPE">     0</i>
   <i type="int" name="TAUPAR">     1</i>
   <i type="int" name="OMEGAPAR">    -1</i>
   <i name="LAMBDA">      1.00000000</i>
  </separator>
  <separator name="External order field" >
   <i name="OFIELD_KAPPA">      0.00000000</i>
   <v name="OFIELD_K">      0.00000000      0.00000000      0.00000000</v>
   <i name="OFIELD_Q6_NEAR">      0.00000000</i>
   <i name="OFIELD_Q6_FAR">      0.00000000</i>
   <i name="OFIELD_A">      0.00000000</i>
  </separator>
 </parameters>
 <atominfo>
  <atoms>      12 </atoms>
  <types>       2 </types>
  <array name="atoms" >
   <dimension dim="1">ion</dimension>
   <field type="string">element</field>
   <field type="int">atomtype</field>
   <set>
    <rc><c>Se</c><c>   1</c></rc>
    <rc><c>Se</c><c>   1</c></rc>
    <rc><c>Se</c><c>   1</c></rc>
    <rc><c>Se</c><c>   1</c></rc>
    <rc><c>Ag</c><c>   2</c></rc>
    <rc><c>Ag</c><c>   2</c></rc>
    <rc><c>Ag</c><c>   2</c></rc>
    <rc><c>Ag</c><c>   2</c></rc>
    <rc><c>Ag</c><c>   2</c></rc>
    <rc><c>Ag</c><c>   2</c></rc>
    <rc><c>Ag</c><c>   2</c></rc>
    <rc><c>Ag</c><c>   2</c></rc>
   </set>
  </array>
  <array name="atomtypes" >
   <dimension dim="1">type</dimension>
   <field type="int">atomspertype</field>
   <field type="string">element</field>
   <field>mass</field>
   <field>valence</field>
   <field type="string">pseudopotential</field>
   <set>
    <rc><c>   4</c><c>Se</c><c>     78.96000000</c><c>      6.00000000</c><c>  PAW_PBE Se 06Sep2000                  </c></rc>
    <rc><c>   8</c><c>Ag</c><c>    107.86800000</c><c>     11.00000000</c><c>  PAW_PBE Ag 02Apr2005                  </c></rc>
   </set>
  </array>
 </atominfo>
 <structure name="initialpos" >
  <crystal>
   <varray name="basis" >
    <v>       4.41858575       0.00000000       0.00647689 </v>
    <v>       0.00000000       6.88758105       0.00000000 </v>
    <v>      -2.11572084       0.00000000       7.61297143 </v>
   </varray>
   <i name="volume">    231.78273967 </i>
   <varray name="rec_basis" >
    <v>       0.22622460       0.00000000       0.06287008 </v>
    <v>       0.00000000       0.14518885       0.00000000 </v>
    <v>      -0.00019247       0.00000000       0.13130127 </v>
   </varray>
  </crystal>
  <varray name="positions" >
   <v>       0.32125411       0.24827764       0.15683651 </v>
   <v>       0.17874584       0.74827764       0.34316337 </v>
   <v>       0.67874584       0.75172236       0.84316337 </v>
   <v>       0.82125411       0.25172236       0.65683651 </v>
   <v>       0.76724883       0.02244519       0.34006836 </v>
   <v>       0.73275113       0.52244519       0.15993152 </v>
   <v>       0.23275113       0.97755481       0.65993152 </v>
   <v>       0.26724883       0.47755481       0.84006836 </v>
   <v>       0.22434047       0.36074499       0.46703901 </v>
   <v>       0.27565948       0.86074499       0.03296087 </v>
   <v>       0.77565948       0.63925501       0.53296087 </v>
   <v>       0.72434047       0.13925501       0.96703901 </v>
  </varray>
 </structure>
 <calculation>
  <scstep>
   <time name="dav">    7.17    7.21</time>
   <time name="total">    7.42    7.46</time>
   <energy>
    <i name="alphaZ">    411.25183851 </i>
    <i name="ewald">  -8271.01499982 </i>
    <i name="hartreedc">  -2130.44452835 </i>
    <i name="XCdc">    -74.13083245 </i>
    <i name="pawpsdc">   8857.22817157 </i>
    <i name="pawaedc">  -8441.54974434 </i>
    <i name="eentropy">     -0.00740746 </i>
    <i name="bandstr">   1108.99409466 </i>
    <i name="atom">   9323.49817503 </i>
    <i name="e_fr_energy">    783.82476735 </i>
    <i name="e_wo_entrp">    783.83217480 </i>
    <i name="e_0_energy">    783.82847108 </i>
   </energy>
  </scstep>
  <scstep>
   <time name="dav">    8.14    8.18</time>
   <time name="total">    8.14    8.18</time>
   <energy>
    <i name="e_fr_energy">    -14.35794071 </i>
    <i name="e_wo_entrp">    -14.35742844 </i>
    <i name="e_0_energy">    -14.35768457 </i>
   </energy>
  </scstep>
  <scstep>
   <time name="dav">    8.25    8.28</time>
   <time name="total">    8.25    8.28</time>
   <energy>
    <i name="e_fr_energy">    -44.80403850 </i>
    <i name="e_wo_entrp">    -44.80370673 </i>
    <i name="e_0_energy">    -44.80387262 </i>
   </energy>
  </scstep>
  <scstep>
   <time name="dav">    7.04    7.06</time>
   <time name="total">    7.04    7.07</time>
   <energy>
    <i name="e_fr_energy">    -45.01679435 </i>
    <i name="e_wo_entrp">    -45.01646884 </i>
    <i name="e_0_energy">    -45.01663159 </i>
   </energy>
  </scstep>
  <scstep>
   <time name="dav">    8.28    8.31</time>
   <time name="total">    8.75    8.78</time>
   <energy>
    <i name="e_fr_energy">    -45.01842012 </i>
    <i name="e_wo_entrp">    -45.01809468 </i>
    <i name="e_0_energy">    -45.01825740 </i>
   </energy>
  </scstep>
  <scstep>
   <time name="dav">    8.28    8.31</time>
   <time name="total">    8.98    9.02</time>
   <energy>
    <i name="e_fr_energy">    -42.31391879 </i>
    <i name="e_wo_entrp">    -42.31325638 </i>
    <i name="e_0_energy">    -42.31358758 </i>
   </energy>
  </scstep>
  <scstep>
   <time name="dav">    7.96    7.99</time>
   <time name="total">    8.66    8.71</time>
   <energy>
    <i name="e_fr_energy">    -42.31116529 </i>
    <i name="e_wo_entrp">    -42.31051374 </i>
    <i name="e_0_energy">    -42.31083951 </i>
   </energy>
  </scstep>
  <scstep>
   <time name="dav">    7.94    7.97</time>
   <time name="total">    8.64    8.66</time>
   <energy>
    <i name="e_fr_energy">    -42.27287651 </i>
    <i name="e_wo_entrp">    -42.27222243 </i>
    <i name="e_0_energy">    -42.27254947 </i>
   </energy>
  </scstep>
  <scstep>
   <time name="dav">    7.94    7.97</time>
   <time name="total">    8.64    8.66</time>
   <energy>
    <i name="e_fr_energy">    -42.27002133 </i>
    <i name="e_wo_entrp">    -42.26938329 </i>
    <i name="e_0_energy">    -42.26970231 </i>
   </energy>
  </scstep>
  <scstep>
   <time name="dav">    7.63    7.65</time>
   <time name="total">    8.34    8.37</time>
   <energy>
    <i name="e_fr_energy">    -42.27009558 </i>
    <i name="e_wo_entrp">    -42.26945865 </i>
    <i name="e_0_energy">    -42.26977711 </i>
   </energy>
  </scstep>
  <scstep>
   <time name="dav">    8.64    8.67</time>
   <time name="total">    9.35    9.39</time>
   <energy>
    <i name="e_fr_energy">    -42.27008785 </i>
    <i name="e_wo_entrp">    -42.26944944 </i>
    <i name="e_0_energy">    -42.26976864 </i>
   </energy>
  </scstep>
  <scstep>
   <time name="dav">    7.75    7.77</time>
   <time name="total">    8.44    8.47</time>
   <energy>
    <i name="e_fr_energy">    -42.27008657 </i>
    <i name="e_wo_entrp">    -42.26944796 </i>
    <i name="e_0_energy">    -42.26976726 </i>
   </energy>
  </scstep>
  <scstep>
   <time name="dav">    7.88    7.91</time>
   <time name="total">    8.58    8.61</time>
   <energy>
    <i name="e_fr_energy">    -42.27008662 </i>
    <i name="e_wo_entrp">    -42.26944807 </i>
    <i name="e_0_energy">    -42.26976734 </i>
   </energy>
  </scstep>
  <scstep>
   <time name="dav">    7.58    7.61</time>
   <time name="total">    8.28    8.30</time>
   <energy>
    <i name="e_fr_energy">    -42.27008646 </i>
    <i name="e_wo_entrp">    -42.26944791 </i>
    <i name="e_0_energy">    -42.26976718 </i>
   </energy>
  </scstep>
  <scstep>
   <time name="dav">    6.43    6.46</time>
   <time name="total">    7.16    7.19</time>
   <energy>
    <i name="e_fr_energy">    -42.27008644 </i>
    <i name="e_wo_entrp">    -42.26944790 </i>
    <i name="e_0_energy">    -42.26976717 </i>
   </energy>
  </scstep>
  <scstep>
   <time name="dav">    6.11    6.14</time>
   <time name="total">    6.41    6.45</time>
   <energy>
    <i name="alphaZ">    411.25183851 </i>
    <i name="ewald">  -8271.01499982 </i>
    <i name="hartreedc">  -2034.03111715 </i>
    <i name="XCdc">    -76.92619640 </i>
    <i name="pawpsdc">  10191.28025469 </i>
    <i name="pawaedc">  -9790.77197018 </i>
    <i name="eentropy">     -0.00063855 </i>
    <i name="bandstr">    204.44456743 </i>
    <i name="atom">   9323.49817503 </i>
    <i name="e_fr_energy">    -42.27008645 </i>
    <i name="e_wo_entrp">    -42.26944790 </i>
    <i name="e_0_energy">    -42.26976717 </i>
   </energy>
  </scstep>
  <structure>
   <crystal>
    <varray name="basis" >
     <v>       4.41858575       0.00000000       0.00647689 </v>
     <v>       0.00000000       6.88758105       0.00000000 </v>
     <v>      -2.11572084       0.00000000       7.61297143 </v>
    </varray>
    <i name="volume">    231.78273967 </i>
    <varray name="rec_basis" >
     <v>       0.22622460       0.00000000       0.06287008 </v>
     <v>       0.00000000       0.14518885       0.00000000 </v>
     <v>      -0.00019247       0.00000000       0.13130127 </v>
    </varray>
   </crystal>
   <varray name="positions" >
    <v>       0.32125411       0.24827764       0.15683651 </v>
    <v>       0.17874584       0.74827764       0.34316337 </v>
    <v>       0.67874584       0.75172236       0.84316337 </v>
    <v>       0.82125411       0.25172236       0.65683651 </v>
    <v>       0.76724883       0.02244519       0.34006836 </v>
    <v>       0.73275113       0.52244519       0.15993152 </v>
    <v>       0.23275113       0.97755481       0.65993152 </v>
    <v>       0.26724883       0.47755481       0.84006836 </v>
    <v>       0.22434047       0.36074499       0.46703901 </v>
    <v>       0.27565948       0.86074499       0.03296087 </v>
    <v>       0.77565948       0.63925501       0.53296087 </v>
    <v>       0.72434047       0.13925501       0.96703901 </v>
   </varray>
  </structure>
  <varray name="forces" >
   <v>      -0.00008247       0.00004766       0.00002839 </v>
   <v>       0.00008247       0.00004766      -0.00002839 </v>
   <v>       0.00008247      -0.00004766      -0.00002839 </v>
   <v>      -0.00008247      -0.00004766       0.00002839 </v>
   <v>       0.00003718       0.00008202      -0.00002450 </v>
   <v>      -0.00003718       0.00008202       0.00002450 </v>
   <v>      -0.00003718      -0.00008202       0.00002450 </v>
   <v>       0.00003718      -0.00008202      -0.00002450 </v>
   <v>      -0.00000011       0.00001091       0.00001393 </v>
   <v>       0.00000011       0.00001091      -0.00001393 </v>
   <v>       0.00000011      -0.00001091      -0.00001393 </v>
   <v>      -0.00000011      -0.00001091       0.00001393 </v>
  </varray>
  <varray name="stress" >
   <v>       0.00693060       0.00000000      -0.00055164 </v>
   <v>       0.00000000       0.00550951       0.00000000 </v>
   <v>      -0.00055505       0.00000000       0.00679078 </v>
  </varray>
  <energy>
   <i name="e_fr_energy">    -42.27008645 </i>
   <i name="e_wo_entrp">    -42.26976717 </i>
   <i name="e_0_energy">     -0.00063855 </i>
  </energy>
  <scstep>
   <time name="total">   12.67   12.71</time>
   <energy>
    <i name="e_fr_energy">   -513.25336167 </i>
    <i name="e_wo_entrp">   -513.25336167 </i>
    <i name="e_0_energy">   -513.25336167 </i>
   </energy>
  </scstep>
  <scstep>
   <time name="total">    9.33    9.36</time>
   <energy>
    <i name="e_fr_energy">   -468.28225725 </i>
    <i name="e_wo_entrp">   -468.28225725 </i>
    <i name="e_0_energy">   -468.28225725 </i>
   </energy>
  </scstep>
  <scstep>
   <time name="total">    9.25    9.27</time>
   <energy>
    <i name="e_fr_energy">   -468.38542604 </i>
    <i name="e_wo_entrp">   -468.38542604 </i>
    <i name="e_0_energy">   -468.38542604 </i>
   </energy>
  </scstep>
  <scstep>
   <time name="total">    7.23    7.25</time>
   <energy>
    <i name="e_fr_energy">   -468.38654738 </i>
    <i name="e_wo_entrp">   -468.38654738 </i>
    <i name="e_0_energy">   -468.38654738 </i>
   </energy>
  </scstep>
  <scstep>
   <time name="total">    7.44    7.46</time>
   <energy>
    <i name="e_fr_energy">   -468.38654361 </i>
    <i name="e_wo_entrp">   -468.38654361 </i>
    <i name="e_0_energy">   -468.38654361 </i>
   </energy>
  </scstep>
  <scstep>
   <time name="total">    7.72    7.75</time>
   <energy>
    <i name="e_fr_energy">   -468.38654318 </i>
    <i name="e_wo_entrp">   -468.38654318 </i>
    <i name="e_0_energy">   -468.38654318 </i>
   </energy>
  </scstep>
  <scstep>
   <time name="total">    7.52    7.54</time>
   <energy>
    <i name="e_fr_energy">   -468.38654298 </i>
    <i name="e_wo_entrp">   -468.38654298 </i>
    <i name="e_0_energy">   -468.38654298 </i>
   </energy>
  </scstep>
  <scstep>
   <time name="total">    7.04    7.06</time>
   <energy>
    <i name="e_fr_energy">   -468.38654367 </i>
    <i name="e_wo_entrp">   -468.38654367 </i>
    <i name="e_0_energy">   -468.38654367 </i>
   </energy>
  </scstep>
  <scstep>
   <time name="total">    6.33    6.35</time>
   <energy>
    <i name="e_fr_energy">   -468.38654337 </i>
    <i name="e_wo_entrp">   -468.38654337 </i>
    <i name="e_0_energy">   -468.38654337 </i>
   </energy>
  </scstep>
  <scstep>
   <time name="total">    6.31    6.33</time>
   <energy>
    <i name="e_fr_energy">   -468.38654374 </i>
    <i name="e_wo_entrp">   -468.38654374 </i>
    <i name="e_0_energy">   -468.38654374 </i>
   </energy>
  </scstep>
  <scstep>
   <time name="total">   12.68   12.72</time>
   <energy>
    <i name="e_fr_energy">   -522.19677575 </i>
    <i name="e_wo_entrp">   -522.19677575 </i>
    <i name="e_0_energy">   -522.19677575 </i>
   </energy>
  </scstep>
  <scstep>
   <time name="total">    9.36    9.39</time>
   <energy>
    <i name="e_fr_energy">   -466.80401385 </i>
    <i name="e_wo_entrp">   -466.80401385 </i>
    <i name="e_0_energy">   -466.80401385 </i>
   </energy>
  </scstep>
  <scstep>
   <time name="total">    9.57    9.60</time>
   <energy>
    <i name="e_fr_energy">   -466.91441288 </i>
    <i name="e_wo_entrp">   -466.91441288 </i>
    <i name="e_0_energy">   -466.91441288 </i>
   </energy>
  </scstep>
  <scstep>
   <time name="total">    7.29    7.31</time>
   <energy>
    <i name="e_fr_energy">   -466.91591338 </i>
    <i name="e_wo_entrp">   -466.91591338 </i>
    <i name="e_0_energy">   -466.91591338 </i>
   </energy>
  </scstep>
  <scstep>
   <time name="total">    7.49    7.51</time>
   <energy>
    <i name="e_fr_energy">   -466.91590870 </i>
    <i name="e_wo_entrp">   -466.91590870 </i>
    <i name="e_0_energy">   -466.91590870 </i>
   </energy>
  </scstep>
  <scstep>
   <time name="total">    7.61    7.63</time>
   <energy>
    <i name="e_fr_energy">   -466.91591798 </i>
    <i name="e_wo_entrp">   -466.91591798 </i>
    <i name="e_0_energy">   -466.91591798 </i>
   </energy>
  </scstep>
  <scstep>
   <time name="total">    7.58    7.61</time>
   <energy>
    <i name="e_fr_energy">   -466.91591748 </i>
    <i name="e_wo_entrp">   -466.91591748 </i>
    <i name="e_0_energy">   -466.91591748 </i>
   </energy>
  </scstep>
  <scstep>
   <time name="total">    7.11    7.13</time>
   <energy>
    <i name="e_fr_energy">   -466.91591557 </i>
    <i name="e_wo_entrp">   -466.91591557 </i>
    <i name="e_0_energy">   -466.91591557 </i>
   </energy>
  </scstep>
  <scstep>
   <time name="total">    6.43    6.45</time>
   <energy>
    <i name="e_fr_energy">   -466.91592131 </i>
    <i name="e_wo_entrp">   -466.91592131 </i>
    <i name="e_0_energy">   -466.91592131 </i>
   </energy>
  </scstep>
  <scstep>
   <time name="total">   12.98   13.02</time>
   <energy>
    <i name="e_fr_energy">   -516.87742622 </i>
    <i name="e_wo_entrp">   -516.87742622 </i>
    <i name="e_0_energy">   -516.87742622 </i>
   </energy>
  </scstep>
  <scstep>
   <time name="total">    9.30    9.33</time>
   <energy>
    <i name="e_fr_energy">   -467.17917368 </i>
    <i name="e_wo_entrp">   -467.17917368 </i>
    <i name="e_0_energy">   -467.17917368 </i>
   </energy>
  </scstep>
  <scstep>
   <time name="total">    9.55    9.58</time>
   <energy>
    <i name="e_fr_energy">   -467.27601264 </i>
    <i name="e_wo_entrp">   -467.27601264 </i>
    <i name="e_0_energy">   -467.27601264 </i>
   </energy>
  </scstep>
  <scstep>
   <time name="total">    7.24    7.26</time>
   <energy>
    <i name="e_fr_energy">   -467.27693099 </i>
    <i name="e_wo_entrp">   -467.27693099 </i>
    <i name="e_0_energy">   -467.27693099 </i>
   </energy>
  </scstep>
  <scstep>
   <time name="total">    7.39    7.42</time>
   <energy>
    <i name="e_fr_energy">   -467.27693560 </i>
    <i name="e_wo_entrp">   -467.27693560 </i>
    <i name="e_0_energy">   -467.27693560 </i>
   </energy>
  </scstep>
  <scstep>
   <time name="total">    7.65    7.67</time>
   <energy>
    <i name="e_fr_energy">   -467.27694206 </i>
    <i name="e_wo_entrp">   -467.27694206 </i>
    <i name="e_0_energy">   -467.27694206 </i>
   </energy>
  </scstep>
  <scstep>
   <time name="total">    7.44    7.46</time>
   <energy>
    <i name="e_fr_energy">   -467.27694183 </i>
    <i name="e_wo_entrp">   -467.27694183 </i>
    <i name="e_0_energy">   -467.27694183 </i>
   </energy>
  </scstep>
  <scstep>
   <time name="total">    6.79    6.81</time>
   <energy>
    <i name="e_fr_energy">   -467.27693941 </i>
    <i name="e_wo_entrp">   -467.27693941 </i>
    <i name="e_0_energy">   -467.27693941 </i>
   </energy>
  </scstep>
  <scstep>
   <time name="total">    6.23    6.25</time>
   <energy>
    <i name="e_fr_energy">   -467.27694016 </i>
    <i name="e_wo_entrp">   -467.27694016 </i>
    <i name="e_0_energy">   -467.27694016 </i>
   </energy>
  </scstep>
  <scstep>
   <time name="total">    6.25    6.27</time>
   <energy>
    <i name="e_fr_energy">   -467.27694012 </i>
    <i name="e_wo_entrp">   -467.27694012 </i>
    <i name="e_0_energy">   -467.27694012 </i>
   </energy>
  </scstep>
  <scstep>
   <time name="total">   11.46   11.49</time>
   <energy>
    <i name="e_fr_energy">    -11.93488906 </i>
    <i name="e_wo_entrp">    -11.93488906 </i>
    <i name="e_0_energy">    -11.93488906 </i>
   </energy>
  </scstep>
  <scstep>
   <time name="total">    9.63    9.65</time>
   <energy>
    <i name="e_fr_energy">    -14.40983186 </i>
    <i name="e_wo_entrp">    -14.40983186 </i>
    <i name="e_0_energy">    -14.40983186 </i>
   </energy>
  </scstep>
  <scstep>
   <time name="total">    9.71    9.74</time>
   <energy>
    <i name="e_fr_energy">    -14.41479756 </i>
    <i name="e_wo_entrp">    -14.41479756 </i>
    <i name="e_0_energy">    -14.41479756 </i>
   </energy>
  </scstep>
  <scstep>
   <time name="total">    9.74    9.77</time>
   <energy>
    <i name="e_fr_energy">    -14.41483253 </i>
    <i name="e_wo_entrp">    -14.41483253 </i>
    <i name="e_0_energy">    -14.41483253 </i>
   </energy>
  </scstep>
  <scstep>
   <time name="total">    9.96    9.98</time>
   <energy>
    <i name="e_fr_energy">    -14.41483256 </i>
    <i name="e_wo_entrp">    -14.41483256 </i>
    <i name="e_0_energy">    -14.41483256 </i>
   </energy>
  </scstep>
  <scstep>
   <time name="total">    9.74    9.77</time>
   <energy>
    <i name="e_fr_energy">    -14.41483257 </i>
    <i name="e_wo_entrp">    -14.41483257 </i>
    <i name="e_0_energy">    -14.41483257 </i>
   </energy>
  </scstep>
  <scstep>
   <time name="total">    8.28    8.30</time>
   <energy>
    <i name="e_fr_energy">    -14.41483257 </i>
    <i name="e_wo_entrp">    -14.41483257 </i>
    <i name="e_0_energy">    -14.41483257 </i>
   </energy>
  </scstep>
  <scstep>
   <time name="total">    8.00    8.03</time>
   <energy>
    <i name="e_fr_energy">    -14.41483257 </i>
    <i name="e_wo_entrp">    -14.41483257 </i>
    <i name="e_0_energy">    -14.41483257 </i>
   </energy>
  </scstep>
  <scstep>
   <time name="total">   11.25   11.28</time>
   <energy>
    <i name="e_fr_energy">    -11.65209742 </i>
    <i name="e_wo_entrp">    -11.65209742 </i>
    <i name="e_0_energy">    -11.65209742 </i>
   </energy>
  </scstep>
  <scstep>
   <time name="total">    9.80    9.83</time>
   <energy>
    <i name="e_fr_energy">    -14.06665786 </i>
    <i name="e_wo_entrp">    -14.06665786 </i>
    <i name="e_0_energy">    -14.06665786 </i>
   </energy>
  </scstep>
  <scstep>
   <time name="total">    9.76    9.78</time>
   <energy>
    <i name="e_fr_energy">    -14.07247602 </i>
    <i name="e_wo_entrp">    -14.07247602 </i>
    <i name="e_0_energy">    -14.07247602 </i>
   </energy>
  </scstep>
  <scstep>
   <time name="total">    9.75    9.77</time>
   <energy>
    <i name="e_fr_energy">    -14.07251496 </i>
    <i name="e_wo_entrp">    -14.07251496 </i>
    <i name="e_0_energy">    -14.07251496 </i>
   </energy>
  </scstep>
  <scstep>
   <time name="total">    9.79    9.81</time>
   <energy>
    <i name="e_fr_energy">    -14.07251498 </i>
    <i name="e_wo_entrp">    -14.07251498 </i>
    <i name="e_0_energy">    -14.07251498 </i>
   </energy>
  </scstep>
  <scstep>
   <time name="total">    9.86    9.89</time>
   <energy>
    <i name="e_fr_energy">    -14.07251499 </i>
    <i name="e_wo_entrp">    -14.07251499 </i>
    <i name="e_0_energy">    -14.07251499 </i>
   </energy>
  </scstep>
  <scstep>
   <time name="total">    8.48    8.50</time>
   <energy>
    <i name="e_fr_energy">    -14.07251499 </i>
    <i name="e_wo_entrp">    -14.07251499 </i>
    <i name="e_0_energy">    -14.07251499 </i>
   </energy>
  </scstep>
  <scstep>
   <time name="total">    8.31    8.33</time>
   <energy>
    <i name="e_fr_energy">    -14.07251499 </i>
    <i name="e_wo_entrp">    -14.07251499 </i>
    <i name="e_0_energy">    -14.07251499 </i>
   </energy>
  </scstep>
  <scstep>
   <time name="total">   11.49   11.52</time>
   <energy>
    <i name="e_fr_energy">     -8.93462793 </i>
    <i name="e_wo_entrp">     -8.93462793 </i>
    <i name="e_0_energy">     -8.93462793 </i>
   </energy>
  </scstep>
  <scstep>
   <time name="total">    9.62    9.64</time>
   <energy>
    <i name="e_fr_energy">    -27.14809247 </i>
    <i name="e_wo_entrp">    -27.14809247 </i>
    <i name="e_0_energy">    -27.14809247 </i>
   </energy>
  </scstep>
  <scstep>
   <time name="total">    9.74    9.77</time>
   <energy>
    <i name="e_fr_energy">    -27.16026350 </i>
    <i name="e_wo_entrp">    -27.16026350 </i>
    <i name="e_0_energy">    -27.16026350 </i>
   </energy>
  </scstep>
  <scstep>
   <time name="total">    9.79    9.81</time>
   <energy>
    <i name="e_fr_energy">    -27.16031614 </i>
    <i name="e_wo_entrp">    -27.16031614 </i>
    <i name="e_0_energy">    -27.16031614 </i>
   </energy>
  </scstep>
  <scstep>
   <time name="total">    9.83    9.85</time>
   <energy>
    <i name="e_fr_energy">    -27.16031615 </i>
    <i name="e_wo_entrp">    -27.16031615 </i>
    <i name="e_0_energy">    -27.16031615 </i>
   </energy>
  </scstep>
  <scstep>
   <time name="total">    9.56    9.61</time>
   <energy>
    <i name="e_fr_energy">    -27.16031612 </i>
    <i name="e_wo_entrp">    -27.16031612 </i>
    <i name="e_0_energy">    -27.16031612 </i>
   </energy>
  </scstep>
  <scstep>
   <time name="total">    8.06    8.08</time>
   <energy>
    <i name="e_fr_energy">    -27.16031611 </i>
    <i name="e_wo_entrp">    -27.16031611 </i>
    <i name="e_0_energy">    -27.16031611 </i>
   </energy>
  </scstep>
  <scstep>
   <time name="total">    7.79    7.81</time>
   <energy>
    <i name="e_fr_energy">    -27.16031611 </i>
    <i name="e_wo_entrp">    -27.16031611 </i>
    <i name="e_0_energy">    -27.16031611 </i>
   </energy>
  </scstep>
  <varray name="epsilon_rpa" >
   <v>      23.50735683       0.00000000       2.62244244 </v>
   <v>       0.00000000      22.97285828       0.00000000 </v>
   <v>       2.62244503       0.00000000      43.40818270 </v>
  </varray>
  <kpoints>
   <generation param="Gamma">
    <v type="int" name="divisions">       6        4        4 </v>
    <v name="usershift">      0.00000000       0.00000000       0.00000000 </v>
    <v name="genvec1">      0.16666667       0.00000000      -0.00000000 </v>
    <v name="genvec2">      0.00000000       0.25000000       0.00000000 </v>
    <v name="genvec3">      0.00000000       0.00000000       0.25000000 </v>
    <v name="shift">      0.00000000       0.00000000       0.00000000 </v>
   </generation>
   <varray name="kpointlist" >
    <v>       0.00000000       0.00000000       0.00000000 </v>
    <v>       0.16666667       0.00000000       0.00000000 </v>
    <v>       0.33333333       0.00000000       0.00000000 </v>
    <v>       0.50000000       0.00000000       0.00000000 </v>
    <v>       0.00000000       0.25000000       0.00000000 </v>
    <v>       0.16666667       0.25000000       0.00000000 </v>
    <v>       0.33333333       0.25000000       0.00000000 </v>
    <v>       0.50000000       0.25000000       0.00000000 </v>
    <v>       0.00000000       0.50000000       0.00000000 </v>
    <v>       0.16666667       0.50000000       0.00000000 </v>
    <v>       0.33333333       0.50000000       0.00000000 </v>
    <v>       0.50000000       0.50000000       0.00000000 </v>
    <v>      -0.00000000       0.00000000       0.25000000 </v>
    <v>       0.16666667       0.00000000       0.25000000 </v>
    <v>       0.33333333       0.00000000       0.25000000 </v>
    <v>       0.50000000       0.00000000       0.25000000 </v>
    <v>      -0.33333333       0.00000000       0.25000000 </v>
    <v>      -0.16666667       0.00000000       0.25000000 </v>
    <v>      -0.00000000       0.25000000       0.25000000 </v>
    <v>       0.16666667       0.25000000       0.25000000 </v>
    <v>       0.33333333       0.25000000       0.25000000 </v>
    <v>       0.50000000       0.25000000       0.25000000 </v>
    <v>      -0.33333333       0.25000000       0.25000000 </v>
    <v>      -0.16666667       0.25000000       0.25000000 </v>
    <v>      -0.00000000       0.50000000       0.25000000 </v>
    <v>       0.16666667       0.50000000       0.25000000 </v>
    <v>       0.33333333       0.50000000       0.25000000 </v>
    <v>       0.50000000       0.50000000       0.25000000 </v>
    <v>      -0.33333333       0.50000000       0.25000000 </v>
    <v>      -0.16666667       0.50000000       0.25000000 </v>
    <v>      -0.00000000       0.00000000       0.50000000 </v>
    <v>       0.16666667       0.00000000       0.50000000 </v>
    <v>       0.33333333       0.00000000       0.50000000 </v>
    <v>       0.50000000       0.00000000       0.50000000 </v>
    <v>      -0.00000000       0.25000000       0.50000000 </v>
    <v>       0.16666667       0.25000000       0.50000000 </v>
    <v>       0.33333333       0.25000000       0.50000000 </v>
    <v>       0.50000000       0.25000000       0.50000000 </v>
    <v>      -0.00000000       0.50000000       0.50000000 </v>
    <v>       0.16666667       0.50000000       0.50000000 </v>
    <v>       0.33333333       0.50000000       0.50000000 </v>
    <v>       0.50000000       0.50000000       0.50000000 </v>
   </varray>
   <varray name="weights" >
    <v>       0.01041667 </v>
    <v>       0.02083333 </v>
    <v>       0.02083333 </v>
    <v>       0.01041667 </v>
    <v>       0.02083333 </v>
    <v>       0.04166667 </v>
    <v>       0.04166667 </v>
    <v>       0.02083333 </v>
    <v>       0.01041667 </v>
    <v>       0.02083333 </v>
    <v>       0.02083333 </v>
    <v>       0.01041667 </v>
    <v>       0.02083333 </v>
    <v>       0.02083333 </v>
    <v>       0.02083333 </v>
    <v>       0.02083333 </v>
    <v>       0.02083333 </v>
    <v>       0.02083333 </v>
    <v>       0.04166667 </v>
    <v>       0.04166667 </v>
    <v>       0.04166667 </v>
    <v>       0.04166667 </v>
    <v>       0.04166667 </v>
    <v>       0.04166667 </v>
    <v>       0.02083333 </v>
    <v>       0.02083333 </v>
    <v>       0.02083333 </v>
    <v>       0.02083333 </v>
    <v>       0.02083333 </v>
    <v>       0.02083333 </v>
    <v>       0.01041667 </v>
    <v>       0.02083333 </v>
    <v>       0.02083333 </v>
    <v>       0.01041667 </v>
    <v>       0.02083333 </v>
    <v>       0.04166667 </v>
    <v>       0.04166667 </v>
    <v>       0.02083333 </v>
    <v>       0.01041667 </v>
    <v>       0.02083333 </v>
    <v>       0.02083333 </v>
    <v>       0.01041667 </v>
   </varray>
  </kpoints>
  <scstep>
   <time name="total">   11.31   11.34</time>
   <energy>
    <i name="e_fr_energy">    -11.93488906 </i>
    <i name="e_wo_entrp">    -11.93488906 </i>
    <i name="e_0_energy">    -11.93488906 </i>
   </energy>
  </scstep>
  <scstep>
   <time name="total">   10.50   10.53</time>
   <energy>
    <i name="e_fr_energy">    -14.40983186 </i>
    <i name="e_wo_entrp">    -14.40983186 </i>
    <i name="e_0_energy">    -14.40983186 </i>
   </energy>
  </scstep>
  <scstep>
   <time name="total">   10.53   10.56</time>
   <energy>
    <i name="e_fr_energy">    -13.99328267 </i>
    <i name="e_wo_entrp">    -13.99328267 </i>
    <i name="e_0_energy">    -13.99328267 </i>
   </energy>
  </scstep>
  <scstep>
   <time name="total">   10.61   10.64</time>
   <energy>
    <i name="e_fr_energy">    -14.02629072 </i>
    <i name="e_wo_entrp">    -14.02629072 </i>
    <i name="e_0_energy">    -14.02629072 </i>
   </energy>
  </scstep>
  <scstep>
   <time name="total">   10.66   10.69</time>
   <energy>
    <i name="e_fr_energy">    -14.11933554 </i>
    <i name="e_wo_entrp">    -14.11933554 </i>
    <i name="e_0_energy">    -14.11933554 </i>
   </energy>
  </scstep>
  <scstep>
   <time name="total">   10.66   10.69</time>
   <energy>
    <i name="e_fr_energy">    -14.14601987 </i>
    <i name="e_wo_entrp">    -14.14601987 </i>
    <i name="e_0_energy">    -14.14601987 </i>
   </energy>
  </scstep>
  <scstep>
   <time name="total">   10.73   10.76</time>
   <energy>
    <i name="e_fr_energy">    -14.15211475 </i>
    <i name="e_wo_entrp">    -14.15211475 </i>
    <i name="e_0_energy">    -14.15211475 </i>
   </energy>
  </scstep>
  <scstep>
   <time name="total">   10.43   10.45</time>
   <energy>
    <i name="e_fr_energy">    -14.15341394 </i>
    <i name="e_wo_entrp">    -14.15341394 </i>
    <i name="e_0_energy">    -14.15341394 </i>
   </energy>
  </scstep>
  <scstep>
   <time name="total">   10.33   10.35</time>
   <energy>
    <i name="e_fr_energy">    -14.15378058 </i>
    <i name="e_wo_entrp">    -14.15378058 </i>
    <i name="e_0_energy">    -14.15378058 </i>
   </energy>
  </scstep>
  <scstep>
   <time name="total">   11.01   11.04</time>
   <energy>
    <i name="e_fr_energy">    -14.15380151 </i>
    <i name="e_wo_entrp">    -14.15380151 </i>
    <i name="e_0_energy">    -14.15380151 </i>
   </energy>
  </scstep>
  <scstep>
   <time name="total">   11.15   11.19</time>
   <energy>
    <i name="e_fr_energy">    -14.15381732 </i>
    <i name="e_wo_entrp">    -14.15381732 </i>
    <i name="e_0_energy">    -14.15381732 </i>
   </energy>
  </scstep>
  <scstep>
   <time name="total">   10.64   10.67</time>
   <energy>
    <i name="e_fr_energy">    -14.15382247 </i>
    <i name="e_wo_entrp">    -14.15382247 </i>
    <i name="e_0_energy">    -14.15382247 </i>
   </energy>
  </scstep>
  <scstep>
   <time name="total">    8.74    8.76</time>
   <energy>
    <i name="e_fr_energy">    -14.15382264 </i>
    <i name="e_wo_entrp">    -14.15382264 </i>
    <i name="e_0_energy">    -14.15382264 </i>
   </energy>
  </scstep>
  <kpoints>
   <generation param="Gamma">
    <v type="int" name="divisions">       6        4        4 </v>
    <v name="usershift">      0.00000000       0.00000000       0.00000000 </v>
    <v name="genvec1">      0.16666667       0.00000000      -0.00000000 </v>
    <v name="genvec2">      0.00000000       0.25000000       0.00000000 </v>
    <v name="genvec3">      0.00000000       0.00000000       0.25000000 </v>
    <v name="shift">      0.00000000       0.00000000       0.00000000 </v>
   </generation>
   <varray name="kpointlist" >
    <v>       0.00000000       0.00000000       0.00000000 </v>
    <v>       0.16666667       0.00000000       0.00000000 </v>
    <v>       0.33333333       0.00000000       0.00000000 </v>
    <v>       0.50000000       0.00000000       0.00000000 </v>
    <v>       0.00000000       0.25000000       0.00000000 </v>
    <v>       0.16666667       0.25000000       0.00000000 </v>
    <v>       0.33333333       0.25000000       0.00000000 </v>
    <v>       0.50000000       0.25000000       0.00000000 </v>
    <v>       0.00000000       0.50000000       0.00000000 </v>
    <v>       0.16666667       0.50000000       0.00000000 </v>
    <v>       0.33333333       0.50000000       0.00000000 </v>
    <v>       0.50000000       0.50000000       0.00000000 </v>
    <v>      -0.00000000       0.00000000       0.25000000 </v>
    <v>       0.16666667       0.00000000       0.25000000 </v>
    <v>       0.33333333       0.00000000       0.25000000 </v>
    <v>       0.50000000       0.00000000       0.25000000 </v>
    <v>      -0.33333333       0.00000000       0.25000000 </v>
    <v>      -0.16666667       0.00000000       0.25000000 </v>
    <v>      -0.00000000       0.25000000       0.25000000 </v>
    <v>       0.16666667       0.25000000       0.25000000 </v>
    <v>       0.33333333       0.25000000       0.25000000 </v>
    <v>       0.50000000       0.25000000       0.25000000 </v>
    <v>      -0.33333333       0.25000000       0.25000000 </v>
    <v>      -0.16666667       0.25000000       0.25000000 </v>
    <v>      -0.00000000       0.50000000       0.25000000 </v>
    <v>       0.16666667       0.50000000       0.25000000 </v>
    <v>       0.33333333       0.50000000       0.25000000 </v>
    <v>       0.50000000       0.50000000       0.25000000 </v>
    <v>      -0.33333333       0.50000000       0.25000000 </v>
    <v>      -0.16666667       0.50000000       0.25000000 </v>
    <v>      -0.00000000       0.00000000       0.50000000 </v>
    <v>       0.16666667       0.00000000       0.50000000 </v>
    <v>       0.33333333       0.00000000       0.50000000 </v>
    <v>       0.50000000       0.00000000       0.50000000 </v>
    <v>      -0.00000000       0.25000000       0.50000000 </v>
    <v>       0.16666667       0.25000000       0.50000000 </v>
    <v>       0.33333333       0.25000000       0.50000000 </v>
    <v>       0.50000000       0.25000000       0.50000000 </v>
    <v>      -0.00000000       0.50000000       0.50000000 </v>
    <v>       0.16666667       0.50000000       0.50000000 </v>
    <v>       0.33333333       0.50000000       0.50000000 </v>
    <v>       0.50000000       0.50000000       0.50000000 </v>
   </varray>
   <varray name="weights" >
    <v>       0.01041667 </v>
    <v>       0.02083333 </v>
    <v>       0.02083333 </v>
    <v>       0.01041667 </v>
    <v>       0.02083333 </v>
    <v>       0.04166667 </v>
    <v>       0.04166667 </v>
    <v>       0.02083333 </v>
    <v>       0.01041667 </v>
    <v>       0.02083333 </v>
    <v>       0.02083333 </v>
    <v>       0.01041667 </v>
    <v>       0.02083333 </v>
    <v>       0.02083333 </v>
    <v>       0.02083333 </v>
    <v>       0.02083333 </v>
    <v>       0.02083333 </v>
    <v>       0.02083333 </v>
    <v>       0.04166667 </v>
    <v>       0.04166667 </v>
    <v>       0.04166667 </v>
    <v>       0.04166667 </v>
    <v>       0.04166667 </v>
    <v>       0.04166667 </v>
    <v>       0.02083333 </v>
    <v>       0.02083333 </v>
    <v>       0.02083333 </v>
    <v>       0.02083333 </v>
    <v>       0.02083333 </v>
    <v>       0.02083333 </v>
    <v>       0.01041667 </v>
    <v>       0.02083333 </v>
    <v>       0.02083333 </v>
    <v>       0.01041667 </v>
    <v>       0.02083333 </v>
    <v>       0.04166667 </v>
    <v>       0.04166667 </v>
    <v>       0.02083333 </v>
    <v>       0.01041667 </v>
    <v>       0.02083333 </v>
    <v>       0.02083333 </v>
    <v>       0.01041667 </v>
   </varray>
  </kpoints>
  <scstep>
   <time name="total">   11.45   11.48</time>
   <energy>
    <i name="e_fr_energy">    -11.65209742 </i>
    <i name="e_wo_entrp">    -11.65209742 </i>
    <i name="e_0_energy">    -11.65209742 </i>
   </energy>
  </scstep>
  <scstep>
   <time name="total">   10.56   10.59</time>
   <energy>
    <i name="e_fr_energy">    -14.06665786 </i>
    <i name="e_wo_entrp">    -14.06665786 </i>
    <i name="e_0_energy">    -14.06665786 </i>
   </energy>
  </scstep>
  <scstep>
   <time name="total">   10.58   10.61</time>
   <energy>
    <i name="e_fr_energy">    -13.85995634 </i>
    <i name="e_wo_entrp">    -13.85995634 </i>
    <i name="e_0_energy">    -13.85995634 </i>
   </energy>
  </scstep>
  <scstep>
   <time name="total">   10.61   10.64</time>
   <energy>
    <i name="e_fr_energy">    -13.99343142 </i>
    <i name="e_wo_entrp">    -13.99343142 </i>
    <i name="e_0_energy">    -13.99343142 </i>
   </energy>
  </scstep>
  <scstep>
   <time name="total">   10.71   10.74</time>
   <energy>
    <i name="e_fr_energy">    -14.04462259 </i>
    <i name="e_wo_entrp">    -14.04462259 </i>
    <i name="e_0_energy">    -14.04462259 </i>
   </energy>
  </scstep>
  <scstep>
   <time name="total">   10.79   10.82</time>
   <energy>
    <i name="e_fr_energy">    -14.06059174 </i>
    <i name="e_wo_entrp">    -14.06059174 </i>
    <i name="e_0_energy">    -14.06059174 </i>
   </energy>
  </scstep>
  <scstep>
   <time name="total">   10.66   10.69</time>
   <energy>
    <i name="e_fr_energy">    -14.06313734 </i>
    <i name="e_wo_entrp">    -14.06313734 </i>
    <i name="e_0_energy">    -14.06313734 </i>
   </energy>
  </scstep>
  <scstep>
   <time name="total">   10.74   10.77</time>
   <energy>
    <i name="e_fr_energy">    -14.06431526 </i>
    <i name="e_wo_entrp">    -14.06431526 </i>
    <i name="e_0_energy">    -14.06431526 </i>
   </energy>
  </scstep>
  <scstep>
   <time name="total">   10.90   10.93</time>
   <energy>
    <i name="e_fr_energy">    -14.06461997 </i>
    <i name="e_wo_entrp">    -14.06461997 </i>
    <i name="e_0_energy">    -14.06461997 </i>
   </energy>
  </scstep>
  <scstep>
   <time name="total">   10.98   11.02</time>
   <energy>
    <i name="e_fr_energy">    -14.06462982 </i>
    <i name="e_wo_entrp">    -14.06462982 </i>
    <i name="e_0_energy">    -14.06462982 </i>
   </energy>
  </scstep>
  <scstep>
   <time name="total">   11.10   11.13</time>
   <energy>
    <i name="e_fr_energy">    -14.06464151 </i>
    <i name="e_wo_entrp">    -14.06464151 </i>
    <i name="e_0_energy">    -14.06464151 </i>
   </energy>
  </scstep>
  <scstep>
   <time name="total">    9.59    9.62</time>
   <energy>
    <i name="e_fr_energy">    -14.06464386 </i>
    <i name="e_wo_entrp">    -14.06464386 </i>
    <i name="e_0_energy">    -14.06464386 </i>
   </energy>
  </scstep>
  <scstep>
   <time name="total">    9.95    9.98</time>
   <energy>
    <i name="e_fr_energy">    -14.06464384 </i>
    <i name="e_wo_entrp">    -14.06464384 </i>
    <i name="e_0_energy">    -14.06464384 </i>
   </energy>
  </scstep>
  <kpoints>
   <generation param="Gamma">
    <v type="int" name="divisions">       6        4        4 </v>
    <v name="usershift">      0.00000000       0.00000000       0.00000000 </v>
    <v name="genvec1">      0.16666667       0.00000000      -0.00000000 </v>
    <v name="genvec2">      0.00000000       0.25000000       0.00000000 </v>
    <v name="genvec3">      0.00000000       0.00000000       0.25000000 </v>
    <v name="shift">      0.00000000       0.00000000       0.00000000 </v>
   </generation>
   <varray name="kpointlist" >
    <v>       0.00000000       0.00000000       0.00000000 </v>
    <v>       0.16666667       0.00000000       0.00000000 </v>
    <v>       0.33333333       0.00000000       0.00000000 </v>
    <v>       0.50000000       0.00000000       0.00000000 </v>
    <v>       0.00000000       0.25000000       0.00000000 </v>
    <v>       0.16666667       0.25000000       0.00000000 </v>
    <v>       0.33333333       0.25000000       0.00000000 </v>
    <v>       0.50000000       0.25000000       0.00000000 </v>
    <v>       0.00000000       0.50000000       0.00000000 </v>
    <v>       0.16666667       0.50000000       0.00000000 </v>
    <v>       0.33333333       0.50000000       0.00000000 </v>
    <v>       0.50000000       0.50000000       0.00000000 </v>
    <v>      -0.00000000       0.00000000       0.25000000 </v>
    <v>       0.16666667       0.00000000       0.25000000 </v>
    <v>       0.33333333       0.00000000       0.25000000 </v>
    <v>       0.50000000       0.00000000       0.25000000 </v>
    <v>      -0.33333333       0.00000000       0.25000000 </v>
    <v>      -0.16666667       0.00000000       0.25000000 </v>
    <v>      -0.00000000       0.25000000       0.25000000 </v>
    <v>       0.16666667       0.25000000       0.25000000 </v>
    <v>       0.33333333       0.25000000       0.25000000 </v>
    <v>       0.50000000       0.25000000       0.25000000 </v>
    <v>      -0.33333333       0.25000000       0.25000000 </v>
    <v>      -0.16666667       0.25000000       0.25000000 </v>
    <v>      -0.00000000       0.50000000       0.25000000 </v>
    <v>       0.16666667       0.50000000       0.25000000 </v>
    <v>       0.33333333       0.50000000       0.25000000 </v>
    <v>       0.50000000       0.50000000       0.25000000 </v>
    <v>      -0.33333333       0.50000000       0.25000000 </v>
    <v>      -0.16666667       0.50000000       0.25000000 </v>
    <v>      -0.00000000       0.00000000       0.50000000 </v>
    <v>       0.16666667       0.00000000       0.50000000 </v>
    <v>       0.33333333       0.00000000       0.50000000 </v>
    <v>       0.50000000       0.00000000       0.50000000 </v>
    <v>      -0.00000000       0.25000000       0.50000000 </v>
    <v>       0.16666667       0.25000000       0.50000000 </v>
    <v>       0.33333333       0.25000000       0.50000000 </v>
    <v>       0.50000000       0.25000000       0.50000000 </v>
    <v>      -0.00000000       0.50000000       0.50000000 </v>
    <v>       0.16666667       0.50000000       0.50000000 </v>
    <v>       0.33333333       0.50000000       0.50000000 </v>
    <v>       0.50000000       0.50000000       0.50000000 </v>
   </varray>
   <varray name="weights" >
    <v>       0.01041667 </v>
    <v>       0.02083333 </v>
    <v>       0.02083333 </v>
    <v>       0.01041667 </v>
    <v>       0.02083333 </v>
    <v>       0.04166667 </v>
    <v>       0.04166667 </v>
    <v>       0.02083333 </v>
    <v>       0.01041667 </v>
    <v>       0.02083333 </v>
    <v>       0.02083333 </v>
    <v>       0.01041667 </v>
    <v>       0.02083333 </v>
    <v>       0.02083333 </v>
    <v>       0.02083333 </v>
    <v>       0.02083333 </v>
    <v>       0.02083333 </v>
    <v>       0.02083333 </v>
    <v>       0.04166667 </v>
    <v>       0.04166667 </v>
    <v>       0.04166667 </v>
    <v>       0.04166667 </v>
    <v>       0.04166667 </v>
    <v>       0.04166667 </v>
    <v>       0.02083333 </v>
    <v>       0.02083333 </v>
    <v>       0.02083333 </v>
    <v>       0.02083333 </v>
    <v>       0.02083333 </v>
    <v>       0.02083333 </v>
    <v>       0.01041667 </v>
    <v>       0.02083333 </v>
    <v>       0.02083333 </v>
    <v>       0.01041667 </v>
    <v>       0.02083333 </v>
    <v>       0.04166667 </v>
    <v>       0.04166667 </v>
    <v>       0.02083333 </v>
    <v>       0.01041667 </v>
    <v>       0.02083333 </v>
    <v>       0.02083333 </v>
    <v>       0.01041667 </v>
   </varray>
  </kpoints>
  <scstep>
   <time name="total">   11.54   11.57</time>
   <energy>
    <i name="e_fr_energy">     -8.93462793 </i>
    <i name="e_wo_entrp">     -8.93462793 </i>
    <i name="e_0_energy">     -8.93462793 </i>
   </energy>
  </scstep>
  <scstep>
   <time name="total">   10.48   10.51</time>
   <energy>
    <i name="e_fr_energy">    -27.14809247 </i>
    <i name="e_wo_entrp">    -27.14809247 </i>
    <i name="e_0_energy">    -27.14809247 </i>
   </energy>
  </scstep>
  <scstep>
   <time name="total">   10.60   10.63</time>
   <energy>
    <i name="e_fr_energy">    -26.78449793 </i>
    <i name="e_wo_entrp">    -26.78449793 </i>
    <i name="e_0_energy">    -26.78449793 </i>
   </energy>
  </scstep>
  <scstep>
   <time name="total">   10.70   10.73</time>
   <energy>
    <i name="e_fr_energy">    -26.80365297 </i>
    <i name="e_wo_entrp">    -26.80365297 </i>
    <i name="e_0_energy">    -26.80365297 </i>
   </energy>
  </scstep>
  <scstep>
   <time name="total">   10.64   10.67</time>
   <energy>
    <i name="e_fr_energy">    -26.89401674 </i>
    <i name="e_wo_entrp">    -26.89401674 </i>
    <i name="e_0_energy">    -26.89401674 </i>
   </energy>
  </scstep>
  <scstep>
   <time name="total">   10.70   10.73</time>
   <energy>
    <i name="e_fr_energy">    -26.92027323 </i>
    <i name="e_wo_entrp">    -26.92027323 </i>
    <i name="e_0_energy">    -26.92027323 </i>
   </energy>
  </scstep>
  <scstep>
   <time name="total">   10.72   10.75</time>
   <energy>
    <i name="e_fr_energy">    -26.92911264 </i>
    <i name="e_wo_entrp">    -26.92911264 </i>
    <i name="e_0_energy">    -26.92911264 </i>
   </energy>
  </scstep>
  <scstep>
   <time name="total">   10.79   10.82</time>
   <energy>
    <i name="e_fr_energy">    -26.93030696 </i>
    <i name="e_wo_entrp">    -26.93030696 </i>
    <i name="e_0_energy">    -26.93030696 </i>
   </energy>
  </scstep>
  <scstep>
   <time name="total">   10.96   10.99</time>
   <energy>
    <i name="e_fr_energy">    -26.93066194 </i>
    <i name="e_wo_entrp">    -26.93066194 </i>
    <i name="e_0_energy">    -26.93066194 </i>
   </energy>
  </scstep>
  <scstep>
   <time name="total">   10.74   10.77</time>
   <energy>
    <i name="e_fr_energy">    -26.93076000 </i>
    <i name="e_wo_entrp">    -26.93076000 </i>
    <i name="e_0_energy">    -26.93076000 </i>
   </energy>
  </scstep>
  <scstep>
   <time name="total">   10.45   10.48</time>
   <energy>
    <i name="e_fr_energy">    -26.93075581 </i>
    <i name="e_wo_entrp">    -26.93075581 </i>
    <i name="e_0_energy">    -26.93075581 </i>
   </energy>
  </scstep>
  <scstep>
   <time name="total">   10.70   10.73</time>
   <energy>
    <i name="e_fr_energy">    -26.93076403 </i>
    <i name="e_wo_entrp">    -26.93076403 </i>
    <i name="e_0_energy">    -26.93076403 </i>
   </energy>
  </scstep>
  <scstep>
   <time name="total">    9.57    9.60</time>
   <energy>
    <i name="e_fr_energy">    -26.93076422 </i>
    <i name="e_wo_entrp">    -26.93076422 </i>
    <i name="e_0_energy">    -26.93076422 </i>
   </energy>
  </scstep>
  <kpoints>
   <generation param="Gamma">
    <v type="int" name="divisions">       6        4        4 </v>
    <v name="usershift">      0.00000000       0.00000000       0.00000000 </v>
    <v name="genvec1">      0.16666667       0.00000000      -0.00000000 </v>
    <v name="genvec2">      0.00000000       0.25000000       0.00000000 </v>
    <v name="genvec3">      0.00000000       0.00000000       0.25000000 </v>
    <v name="shift">      0.00000000       0.00000000       0.00000000 </v>
   </generation>
   <varray name="kpointlist" >
    <v>       0.00000000       0.00000000       0.00000000 </v>
    <v>       0.16666667       0.00000000       0.00000000 </v>
    <v>       0.33333333       0.00000000       0.00000000 </v>
    <v>       0.50000000       0.00000000       0.00000000 </v>
    <v>       0.00000000       0.25000000       0.00000000 </v>
    <v>       0.16666667       0.25000000       0.00000000 </v>
    <v>       0.33333333       0.25000000       0.00000000 </v>
    <v>       0.50000000       0.25000000       0.00000000 </v>
    <v>       0.00000000       0.50000000       0.00000000 </v>
    <v>       0.16666667       0.50000000       0.00000000 </v>
    <v>       0.33333333       0.50000000       0.00000000 </v>
    <v>       0.50000000       0.50000000       0.00000000 </v>
    <v>      -0.00000000       0.00000000       0.25000000 </v>
    <v>       0.16666667       0.00000000       0.25000000 </v>
    <v>       0.33333333       0.00000000       0.25000000 </v>
    <v>       0.50000000       0.00000000       0.25000000 </v>
    <v>      -0.33333333       0.00000000       0.25000000 </v>
    <v>      -0.16666667       0.00000000       0.25000000 </v>
    <v>      -0.00000000       0.25000000       0.25000000 </v>
    <v>       0.16666667       0.25000000       0.25000000 </v>
    <v>       0.33333333       0.25000000       0.25000000 </v>
    <v>       0.50000000       0.25000000       0.25000000 </v>
    <v>      -0.33333333       0.25000000       0.25000000 </v>
    <v>      -0.16666667       0.25000000       0.25000000 </v>
    <v>      -0.00000000       0.50000000       0.25000000 </v>
    <v>       0.16666667       0.50000000       0.25000000 </v>
    <v>       0.33333333       0.50000000       0.25000000 </v>
    <v>       0.50000000       0.50000000       0.25000000 </v>
    <v>      -0.33333333       0.50000000       0.25000000 </v>
    <v>      -0.16666667       0.50000000       0.25000000 </v>
    <v>      -0.00000000       0.00000000       0.50000000 </v>
    <v>       0.16666667       0.00000000       0.50000000 </v>
    <v>       0.33333333       0.00000000       0.50000000 </v>
    <v>       0.50000000       0.00000000       0.50000000 </v>
    <v>      -0.00000000       0.25000000       0.50000000 </v>
    <v>       0.16666667       0.25000000       0.50000000 </v>
    <v>       0.33333333       0.25000000       0.50000000 </v>
    <v>       0.50000000       0.25000000       0.50000000 </v>
    <v>      -0.00000000       0.50000000       0.50000000 </v>
    <v>       0.16666667       0.50000000       0.50000000 </v>
    <v>       0.33333333       0.50000000       0.50000000 </v>
    <v>       0.50000000       0.50000000       0.50000000 </v>
   </varray>
   <varray name="weights" >
    <v>       0.01041667 </v>
    <v>       0.02083333 </v>
    <v>       0.02083333 </v>
    <v>       0.01041667 </v>
    <v>       0.02083333 </v>
    <v>       0.04166667 </v>
    <v>       0.04166667 </v>
    <v>       0.02083333 </v>
    <v>       0.01041667 </v>
    <v>       0.02083333 </v>
    <v>       0.02083333 </v>
    <v>       0.01041667 </v>
    <v>       0.02083333 </v>
    <v>       0.02083333 </v>
    <v>       0.02083333 </v>
    <v>       0.02083333 </v>
    <v>       0.02083333 </v>
    <v>       0.02083333 </v>
    <v>       0.04166667 </v>
    <v>       0.04166667 </v>
    <v>       0.04166667 </v>
    <v>       0.04166667 </v>
    <v>       0.04166667 </v>
    <v>       0.04166667 </v>
    <v>       0.02083333 </v>
    <v>       0.02083333 </v>
    <v>       0.02083333 </v>
    <v>       0.02083333 </v>
    <v>       0.02083333 </v>
    <v>       0.02083333 </v>
    <v>       0.01041667 </v>
    <v>       0.02083333 </v>
    <v>       0.02083333 </v>
    <v>       0.01041667 </v>
    <v>       0.02083333 </v>
    <v>       0.04166667 </v>
    <v>       0.04166667 </v>
    <v>       0.02083333 </v>
    <v>       0.01041667 </v>
    <v>       0.02083333 </v>
    <v>       0.02083333 </v>
    <v>       0.01041667 </v>
   </varray>
  </kpoints>
  <varray name="epsilon" >
   <v>      22.62551623       0.00000000       2.95489034 </v>
   <v>       0.00000000      22.41171027       0.00000000 </v>
   <v>       2.95500530       0.00000000      42.61711723 </v>
  </varray>
  <kpoints>
   <generation param="Gamma">
    <v type="int" name="divisions">       6        4        4 </v>
    <v name="usershift">      0.00000000       0.00000000       0.00000000 </v>
    <v name="genvec1">      0.16666667       0.00000000      -0.00000000 </v>
    <v name="genvec2">      0.00000000       0.25000000       0.00000000 </v>
    <v name="genvec3">      0.00000000       0.00000000       0.25000000 </v>
    <v name="shift">      0.00000000       0.00000000       0.00000000 </v>
   </generation>
   <varray name="kpointlist" >
    <v>       0.00000000       0.00000000       0.00000000 </v>
    <v>       0.16666667       0.00000000       0.00000000 </v>
    <v>       0.33333333       0.00000000       0.00000000 </v>
    <v>       0.50000000       0.00000000       0.00000000 </v>
    <v>       0.00000000       0.25000000       0.00000000 </v>
    <v>       0.16666667       0.25000000       0.00000000 </v>
    <v>       0.33333333       0.25000000       0.00000000 </v>
    <v>       0.50000000       0.25000000       0.00000000 </v>
    <v>       0.00000000       0.50000000       0.00000000 </v>
    <v>       0.16666667       0.50000000       0.00000000 </v>
    <v>       0.33333333       0.50000000       0.00000000 </v>
    <v>       0.50000000       0.50000000       0.00000000 </v>
    <v>      -0.00000000       0.00000000       0.25000000 </v>
    <v>       0.16666667       0.00000000       0.25000000 </v>
    <v>       0.33333333       0.00000000       0.25000000 </v>
    <v>       0.50000000       0.00000000       0.25000000 </v>
    <v>      -0.33333333       0.00000000       0.25000000 </v>
    <v>      -0.16666667       0.00000000       0.25000000 </v>
    <v>      -0.00000000       0.25000000       0.25000000 </v>
    <v>       0.16666667       0.25000000       0.25000000 </v>
    <v>       0.33333333       0.25000000       0.25000000 </v>
    <v>       0.50000000       0.25000000       0.25000000 </v>
    <v>      -0.33333333       0.25000000       0.25000000 </v>
    <v>      -0.16666667       0.25000000       0.25000000 </v>
    <v>      -0.00000000       0.50000000       0.25000000 </v>
    <v>       0.16666667       0.50000000       0.25000000 </v>
    <v>       0.33333333       0.50000000       0.25000000 </v>
    <v>       0.50000000       0.50000000       0.25000000 </v>
    <v>      -0.33333333       0.50000000       0.25000000 </v>
    <v>      -0.16666667       0.50000000       0.25000000 </v>
    <v>      -0.00000000       0.00000000       0.50000000 </v>
    <v>       0.16666667       0.00000000       0.50000000 </v>
    <v>       0.33333333       0.00000000       0.50000000 </v>
    <v>       0.50000000       0.00000000       0.50000000 </v>
    <v>      -0.00000000       0.25000000       0.50000000 </v>
    <v>       0.16666667       0.25000000       0.50000000 </v>
    <v>       0.33333333       0.25000000       0.50000000 </v>
    <v>       0.50000000       0.25000000       0.50000000 </v>
    <v>      -0.00000000       0.50000000       0.50000000 </v>
    <v>       0.16666667       0.50000000       0.50000000 </v>
    <v>       0.33333333       0.50000000       0.50000000 </v>
    <v>       0.50000000       0.50000000       0.50000000 </v>
   </varray>
   <varray name="weights" >
    <v>       0.01041667 </v>
    <v>       0.02083333 </v>
    <v>       0.02083333 </v>
    <v>       0.01041667 </v>
    <v>       0.02083333 </v>
    <v>       0.04166667 </v>
    <v>       0.04166667 </v>
    <v>       0.02083333 </v>
    <v>       0.01041667 </v>
    <v>       0.02083333 </v>
    <v>       0.02083333 </v>
    <v>       0.01041667 </v>
    <v>       0.02083333 </v>
    <v>       0.02083333 </v>
    <v>       0.02083333 </v>
    <v>       0.02083333 </v>
    <v>       0.02083333 </v>
    <v>       0.02083333 </v>
    <v>       0.04166667 </v>
    <v>       0.04166667 </v>
    <v>       0.04166667 </v>
    <v>       0.04166667 </v>
    <v>       0.04166667 </v>
    <v>       0.04166667 </v>
    <v>       0.02083333 </v>
    <v>       0.02083333 </v>
    <v>       0.02083333 </v>
    <v>       0.02083333 </v>
    <v>       0.02083333 </v>
    <v>       0.02083333 </v>
    <v>       0.01041667 </v>
    <v>       0.02083333 </v>
    <v>       0.02083333 </v>
    <v>       0.01041667 </v>
    <v>       0.02083333 </v>
    <v>       0.04166667 </v>
    <v>       0.04166667 </v>
    <v>       0.02083333 </v>
    <v>       0.01041667 </v>
    <v>       0.02083333 </v>
    <v>       0.02083333 </v>
    <v>       0.01041667 </v>
   </varray>
  </kpoints>
  <array name="born_charges" >
   <dimension dim="1">ion</dimension>
   <set>
    <v>      -2.86974073      -0.30188763       0.09348818 </v>
    <v>      -0.08959452      -2.73670949      -0.30150883 </v>
    <v>       0.07890800       0.45895012      -2.75614174 </v>
   </set>
   <set>
    <v>      -2.86849129       0.30217342       0.09565723 </v>
    <v>       0.08959452      -2.73670949       0.30150883 </v>
    <v>       0.07900519      -0.45838175      -2.75627450 </v>
   </set>
   <set>
    <v>      -2.86849129      -0.30217342       0.09565723 </v>
    <v>      -0.08925951      -2.73609582      -0.30333801 </v>
    <v>       0.07900519       0.45838175      -2.75627450 </v>
   </set>
   <set>
    <v>      -2.86974073       0.30188763       0.09348818 </v>
    <v>       0.08925951      -2.73609582       0.30333801 </v>
    <v>       0.07890800      -0.45895012      -2.75614174 </v>
   </set>
   <set>
    <v>       1.31468616      -0.30808731       0.05140861 </v>
    <v>      -0.64446102       1.37459150       0.09465839 </v>
    <v>       0.03737173      -0.08859540       1.18340296 </v>
   </set>
   <set>
    <v>       1.31578573       0.30835424       0.05125326 </v>
    <v>       0.64446102       1.37459150      -0.09465839 </v>
    <v>       0.03727905       0.08916241       1.18168844 </v>
   </set>
   <set>
    <v>       1.31578573      -0.30835424       0.05125326 </v>
    <v>      -0.64491839       1.37419546       0.09440076 </v>
    <v>       0.03727905      -0.08916241       1.18168844 </v>
   </set>
   <set>
    <v>       1.31468616       0.30808731       0.05140861 </v>
    <v>       0.64491839       1.37419546      -0.09440076 </v>
    <v>       0.03737173       0.08859540       1.18340296 </v>
   </set>
   <set>
    <v>       1.55397986      -0.07710858      -0.14561409 </v>
    <v>      -0.02898533       1.36298860      -0.05235382 </v>
    <v>      -0.11653075       0.02242868       1.57402330 </v>
   </set>
   <set>
    <v>       1.55378027       0.07631239      -0.14619319 </v>
    <v>       0.02898533       1.36298860       0.05235382 </v>
    <v>      -0.11603322      -0.02282081       1.57330155 </v>
   </set>
   <set>
    <v>       1.55378027      -0.07631239      -0.14619319 </v>
    <v>      -0.02870424       1.36102975      -0.05396514 </v>
    <v>      -0.11603322       0.02282081       1.57330155 </v>
   </set>
   <set>
    <v>       1.55397986       0.07710858      -0.14561409 </v>
    <v>       0.02870424       1.36102975       0.05396514 </v>
    <v>      -0.11653075      -0.02242868       1.57402330 </v>
   </set>
  </array>
  <time name="totalsc"> 1116.85 1120.20</time>
  <eigenvalues>
   <array>
    <dimension dim="1">band</dimension>
    <dimension dim="2">kpoint</dimension>
    <dimension dim="3">spin</dimension>
    <field>eigene</field>
    <field>occ</field>
    <set>
     <set comment="spin 1">
      <set comment="kpoint 1">
       <r>   -7.3912    1.0000 </r>
       <r>   -6.8605    1.0000 </r>
       <r>   -6.7418    1.0000 </r>
       <r>   -6.5794    1.0000 </r>
       <r>    0.0053    1.0000 </r>
       <r>    0.3545    1.0000 </r>
       <r>    0.3676    1.0000 </r>
       <r>    0.3711    1.0000 </r>
       <r>    0.4472    1.0000 </r>
       <r>    0.8012    1.0000 </r>
       <r>    0.9372    1.0000 </r>
       <r>    1.1488    1.0000 </r>
       <r>    1.1999    1.0000 </r>
       <r>    1.2033    1.0000 </r>
       <r>    1.2783    1.0000 </r>
       <r>    1.4115    1.0000 </r>
       <r>    1.4132    1.0000 </r>
       <r>    1.4925    1.0000 </r>
       <r>    1.5299    1.0000 </r>
       <r>    1.6173    1.0000 </r>
       <r>    1.7846    1.0000 </r>
       <r>    1.8198    1.0000 </r>
       <r>    1.9680    1.0000 </r>
       <r>    2.1206    1.0000 </r>
       <r>    2.1303    1.0000 </r>
       <r>    2.1876    1.0000 </r>
       <r>    2.2047    1.0000 </r>
       <r>    2.2297    1.0000 </r>
       <r>    2.2998    1.0000 </r>
       <r>    2.3549    1.0000 </r>
       <r>    2.4143    1.0000 </r>
       <r>    2.4961    1.0000 </r>
       <r>    2.5370    1.0000 </r>
       <r>    2.5401    1.0000 </r>
       <r>    2.7114    1.0000 </r>
       <r>    2.7353    1.0000 </r>
       <r>    2.7573    1.0000 </r>
       <r>    2.8748    1.0000 </r>
[...]
       <r>   13.2119    0.0000 </r>
       <r>   13.2119    0.0000 </r>
       <r>   14.1173    0.0000 </r>
       <r>   14.1173    0.0000 </r>
       <r>   14.9500    0.0000 </r>
       <r>   14.9500    0.0000 </r>
       <r>   16.0425    0.0000 </r>
       <r>   16.0425    0.0000 </r>
       <r>   16.3190    0.0000 </r>
       <r>   16.3190    0.0000 </r>
      </set>
      <set comment="kpoint 42">
       <r>   -6.8405    1.0000 </r>
       <r>   -6.8405    1.0000 </r>
       <r>   -6.6850    1.0000 </r>
       <r>   -6.6850    1.0000 </r>
       <r>   -0.1462    1.0000 </r>
       <r>   -0.1462    1.0000 </r>
       <r>    0.6196    1.0000 </r>
       <r>    0.6196    1.0000 </r>
       <r>    0.8435    1.0000 </r>
       <r>    0.8435    1.0000 </r>
       <r>    0.9489    1.0000 </r>
       <r>    0.9489    1.0000 </r>
       <r>    1.1050    1.0000 </r>
       <r>    1.1050    1.0000 </r>
       <r>    1.4720    1.0000 </r>
       <r>    1.4720    1.0000 </r>
       <r>    1.6333    1.0000 </r>
       <r>    1.6333    1.0000 </r>
       <r>    1.6634    1.0000 </r>
       <r>    1.6634    1.0000 </r>
       <r>    1.8128    1.0000 </r>
       <r>    1.8128    1.0000 </r>
       <r>    1.9989    1.0000 </r>
       <r>    1.9989    1.0000 </r>
       <r>    2.1296    1.0000 </r>
       <r>    2.1296    1.0000 </r>
       <r>    2.1921    1.0000 </r>
       <r>    2.1921    1.0000 </r>
       <r>    2.2641    1.0000 </r>
       <r>    2.2641    1.0000 </r>
       <r>    2.4467    1.0000 </r>
       <r>    2.4467    1.0000 </r>
       <r>    2.5004    1.0000 </r>
       <r>    2.5004    1.0000 </r>
       <r>    2.6122    1.0000 </r>
       <r>    2.6122    1.0000 </r>
       <r>    2.6983    1.0000 </r>
       <r>    2.6983    1.0000 </r>
       <r>    2.7726    1.0000 </r>
       <r>    2.7726    1.0000 </r>
       <r>    2.8773    1.0000 </r>
       <r>    2.8773    1.0000 </r>
       <r>    2.9496    1.0000 </r>
       <r>    2.9496    1.0000 </r>
       <r>    3.1520    1.0000 </r>
       <r>    3.1520    1.0000 </r>
       <r>    3.6193    1.0000 </r>
       <r>    3.6193    1.0000 </r>
       <r>    4.3034    1.0000 </r>
       <r>    4.3034    1.0000 </r>
       <r>    4.6847    1.0000 </r>
       <r>    4.6847    1.0000 </r>
       <r>    5.0794    1.0000 </r>
       <r>    5.0794    1.0000 </r>
       <r>    5.9383    1.0000 </r>
       <r>    5.9383    1.0000 </r>
       <r>    7.5355    0.0000 </r>
       <r>    7.5355    0.0000 </r>
       <r>    8.0974    0.0000 </r>
       <r>    8.0974    0.0000 </r>
       <r>    9.8958    0.0000 </r>
       <r>    9.8958    0.0000 </r>
       <r>   10.7855    0.0000 </r>
       <r>   10.7855    0.0000 </r>
       <r>   11.1642    0.0000 </r>
       <r>   11.1642    0.0000 </r>
       <r>   11.7758    0.0000 </r>
       <r>   11.7758    0.0000 </r>
       <r>   12.3499    0.0000 </r>
       <r>   12.3499    0.0000 </r>
       <r>   13.9405    0.0000 </r>
       <r>   13.9405    0.0000 </r>
       <r>   14.5547    0.0000 </r>
       <r>   14.5547    0.0000 </r>
       <r>   14.8447    0.0000 </r>
       <r>   14.8447    0.0000 </r>
       <r>   16.2710    0.0000 </r>
       <r>   16.2710    0.0000 </r>
       <r>   16.8723    0.0000 </r>
       <r>   16.8723    0.0000 </r>
      </set>
     </set>
    </set>
   </array>
  </eigenvalues>
  <separator name="orbital magnetization" >
   <v name="MAGDIPOLOUT">      0.00000000      0.00000000      0.00000000</v>
  </separator>
  <dos>
   <i name="efermi">      6.46238073 </i>
   <total>
    <array>
     <dimension dim="1">gridpoints</dimension>
     <dimension dim="2">spin</dimension>
     <field>energy</field>
     <field>total</field>
     <field>integrated</field>
     <set>
      <set comment="spin 1">
       <r>    -8.6044     0.0000     0.0000 </r>
       <r>    -8.5154     0.0000     0.0000 </r>
       <r>    -8.4264     0.0000     0.0000 </r>
       <r>    -8.3375     0.0000     0.0000 </r>
       <r>    -8.2485     0.0000     0.0000 </r>
       <r>    -8.1595     0.0000     0.0000 </r>
       <r>    -8.0706     0.0000     0.0000 </r>
       <r>    -7.9816     0.0000     0.0000 </r>
       <r>    -7.8926     0.0000     0.0000 </r>
       <r>    -7.8037     0.0000     0.0000 </r>
       <r>    -7.7147     0.0000     0.0000 </r>
       <r>    -7.6257     0.0000     0.0000 </r>
       <r>    -7.5368     0.0000     0.0000 </r>
       <r>    -7.4478     0.0129     0.0012 </r>
       <r>    -7.3588     0.3183     0.0295 </r>
       <r>    -7.2699     1.7387     0.1842 </r>
       <r>    -7.1809     3.0820     0.4583 </r>
       <r>    -7.0919     3.5313     0.7725 </r>
       <r>    -7.0030     6.8623     1.3830 </r>
       <r>    -6.9140     8.7427     2.1608 </r>
       <r>    -6.8250    14.6180     3.4613 </r>
       <r>    -6.7361    21.9683     5.4158 </r>
       <r>    -6.6471    18.5463     7.0658 </r>
       <r>    -6.5581     9.7596     7.9340 </r>
       <r>    -6.4692     0.7404     7.9999 </r>
       <r>    -6.3802     0.0011     8.0000 </r>
       <r>    -6.2912     0.0000     8.0000 </r>
       <r>    -6.2023     0.0000     8.0000 </r>
       <r>    -6.1133     0.0000     8.0000 </r>
       <r>    -6.0243     0.0000     8.0000 </r>
       <r>    -5.9354     0.0000     8.0000 </r>
       <r>    -5.8464     0.0000     8.0000 </r>
       <r>    -5.7574     0.0000     8.0000 </r>
       <r>    -5.6685     0.0000     8.0000 </r>
       <r>    -5.5795     0.0000     8.0000 </r>
       <r>    -5.4905     0.0000     8.0000 </r>
       <r>    -5.4016     0.0000     8.0000 </r>
       <r>    -5.3126     0.0000     8.0000 </r>
       <r>    -5.2236     0.0000     8.0000 </r>
       <r>    -5.1347     0.0000     8.0000 </r>
       <r>    -5.0457     0.0000     8.0000 </r>
       <r>    -4.9567     0.0000     8.0000 </r>
       <r>    -4.8678     0.0000     8.0000 </r>
       <r>    -4.7788     0.0000     8.0000 </r>
       <r>    -4.6898     0.0000     8.0000 </r>
       <r>    -4.6009     0.0000     8.0000 </r>
       <r>    -4.5119     0.0000     8.0000 </r>
       <r>    -4.4230     0.0000     8.0000 </r>
       <r>    -4.3340     0.0000     8.0000 </r>
       <r>    -4.2450     0.0000     8.0000 </r>
       <r>    -4.1561     0.0000     8.0000 </r>
       <r>    -4.0671     0.0000     8.0000 </r>
       <r>    -3.9781     0.0000     8.0000 </r>
       <r>    -3.8892     0.0000     8.0000 </r>
       <r>    -3.8002     0.0000     8.0000 </r>
       <r>    -3.7112     0.0000     8.0000 </r>
       <r>    -3.6223     0.0000     8.0000 </r>
       <r>    -3.5333     0.0000     8.0000 </r>
       <r>    -3.4443     0.0000     8.0000 </r>
       <r>    -3.3554     0.0000     8.0000 </r>
       <r>    -3.2664     0.0000     8.0000 </r>
       <r>    -3.1774     0.0000     8.0000 </r>
       <r>    -3.0885     0.0000     8.0000 </r>
       <r>    -2.9995     0.0000     8.0000 </r>
       <r>    -2.9105     0.0000     8.0000 </r>
       <r>    -2.8216     0.0000     8.0000 </r>
       <r>    -2.7326     0.0000     8.0000 </r>
       <r>    -2.6436     0.0000     8.0000 </r>
       <r>    -2.5547     0.0000     8.0000 </r>
       <r>    -2.4657     0.0000     8.0000 </r>
       <r>    -2.3767     0.0000     8.0000 </r>
       <r>    -2.2878     0.0000     8.0000 </r>
       <r>    -2.1988     0.0000     8.0000 </r>
       <r>    -2.1098     0.0000     8.0000 </r>
       <r>    -2.0209     0.0000     8.0000 </r>
       <r>    -1.9319     0.0000     8.0000 </r>
       <r>    -1.8429     0.0000     8.0000 </r>
       <r>    -1.7540     0.0000     8.0000 </r>
       <r>    -1.6650     0.0000     8.0000 </r>
       <r>    -1.5760     0.0000     8.0000 </r>
       <r>    -1.4871     0.0000     8.0000 </r>
       <r>    -1.3981     0.0000     8.0000 </r>
       <r>    -1.3091     0.0000     8.0000 </r>
       <r>    -1.2202     0.0000     8.0000 </r>
       <r>    -1.1312     0.0000     8.0000 </r>
       <r>    -1.0422     0.0000     8.0000 </r>
       <r>    -0.9533     0.0000     8.0000 </r>
       <r>    -0.8643     0.0000     8.0000 </r>
       <r>    -0.7753     0.0000     8.0000 </r>
       <r>    -0.6864     0.0000     8.0000 </r>
       <r>    -0.5974     0.0000     8.0000 </r>
       <r>    -0.5084     0.0000     8.0000 </r>
       <r>    -0.4195     0.0000     8.0000 </r>
       <r>    -0.3305     0.0001     8.0000 </r>
       <r>    -0.2415     0.0795     8.0071 </r>
       <r>    -0.1526     0.7121     8.0704 </r>
       <r>    -0.0636     1.4018     8.1951 </r>
       <r>     0.0254     3.6667     8.5214 </r>
       <r>     0.1143     5.9083     9.0470 </r>
       <r>     0.2033    15.7248    10.4460 </r>
       <r>     0.2923    14.5040    11.7363 </r>
       <r>     0.3812    14.4961    13.0260 </r>
       <r>     0.4702    16.6835    14.5103 </r>
       <r>     0.5592    13.6841    15.7277 </r>
       <r>     0.6481    12.6797    16.8558 </r>
       <r>     0.7371    14.0044    18.1017 </r>
       <r>     0.8261    16.9503    19.6097 </r>
       <r>     0.9150    18.8955    21.2907 </r>
       <r>     1.0040    17.6662    22.8624 </r>
       <r>     1.0929    19.4871    24.5961 </r>
       <r>     1.1819    18.2169    26.2168 </r>
       <r>     1.2709    14.5551    27.5117 </r>
       <r>     1.3598    17.7583    29.0916 </r>
       <r>     1.4488    24.5993    31.2801 </r>
       <r>     1.5378    26.1778    33.6090 </r>
       <r>     1.6267    28.7114    36.1634 </r>
       <r>     1.7157    33.4970    39.1435 </r>
       <r>     1.8047    31.2753    41.9259 </r>
       <r>     1.8936    26.5864    44.2912 </r>
       <r>     1.9826    27.8593    46.7697 </r>
       <r>     2.0716    28.3158    49.2889 </r>
       <r>     2.1605    31.2075    52.0653 </r>
       <r>     2.2495    36.0910    55.2762 </r>
       <r>     2.3385    39.5648    58.7961 </r>
       <r>     2.4274    39.8167    62.3384 </r>
       <r>     2.5164    35.9438    65.5362 </r>
       <r>     2.6054    35.3575    68.6818 </r>
       <r>     2.6943    36.0518    71.8892 </r>
       <r>     2.7833    40.7569    75.5152 </r>
       <r>     2.8723    40.2947    79.1001 </r>
       <r>     2.9612    29.6060    81.7340 </r>
       <r>     3.0502    29.5117    84.3596 </r>
       <r>     3.1392    27.2744    86.7861 </r>
       <r>     3.2281    25.5213    89.0566 </r>
       <r>     3.3171    15.8585    90.4675 </r>
       <r>     3.4061    12.1624    91.5495 </r>
       <r>     3.4950    11.9007    92.6083 </r>
       <r>     3.5840    10.0264    93.5003 </r>
       <r>     3.6730    12.8895    94.6470 </r>
       <r>     3.7619     8.0769    95.3656 </r>
       <r>     3.8509     7.0504    95.9928 </r>
       <r>     3.9399     8.0979    96.7132 </r>
       <r>     4.0288     6.0423    97.2508 </r>
       <r>     4.1178     5.6672    97.7550 </r>
       <r>     4.2068     6.9946    98.3773 </r>
       <r>     4.2957     5.8566    98.8983 </r>
       <r>     4.3847     6.5720    99.4830 </r>
       <r>     4.4737     7.6846   100.1667 </r>
       <r>     4.5626     6.9023   100.7807 </r>
       <r>     4.6516     7.8493   101.4790 </r>
       <r>     4.7406     5.0922   101.9321 </r>
       <r>     4.8295     6.3458   102.4966 </r>
       <r>     4.9185     9.0985   103.3061 </r>
       <r>     5.0075     9.2286   104.1271 </r>
       <r>     5.0964     4.3610   104.5151 </r>
       <r>     5.1854     3.9491   104.8665 </r>
       <r>     5.2744     6.9592   105.4856 </r>
       <r>     5.3633     9.2662   106.3100 </r>
       <r>     5.4523     7.2782   106.9575 </r>
       <r>     5.5413     4.6027   107.3670 </r>
       <r>     5.6302     7.9586   108.0750 </r>
       <r>     5.7192     9.2415   108.8972 </r>
       <r>     5.8082     6.1724   109.4463 </r>
       <r>     5.8971     6.9555   110.0651 </r>
       <r>     5.9861     8.2588   110.7999 </r>
       <r>     6.0751     4.2162   111.1750 </r>
       <r>     6.1640     4.0457   111.5349 </r>
       <r>     6.2530     2.2845   111.7382 </r>
       <r>     6.3420     1.8678   111.9043 </r>
       <r>     6.4309     0.8495   111.9799 </r>
       <r>     6.5199     0.4265   112.0179 </r>
       <r>     6.6089     0.0336   112.0208 </r>
       <r>     6.6978     0.0566   112.0259 </r>
       <r>     6.7868     0.1868   112.0425 </r>
       <r>     6.8757     0.5994   112.0958 </r>
       <r>     6.9647     0.9404   112.1795 </r>
       <r>     7.0537     0.9552   112.2645 </r>
       <r>     7.1426     0.6275   112.3203 </r>
       <r>     7.2316     1.5775   112.4606 </r>
       <r>     7.3206     2.4643   112.6799 </r>
       <r>     7.4095     1.5856   112.8209 </r>
       <r>     7.4985     2.3234   113.0276 </r>
       <r>     7.5875     2.8645   113.2825 </r>
       <r>     7.6764     1.9687   113.4576 </r>
       <r>     7.7654     4.1799   113.8295 </r>
       <r>     7.8544     4.7008   114.2477 </r>
       <r>     7.9433     3.2557   114.5374 </r>
       <r>     8.0323     4.4279   114.9313 </r>
       <r>     8.1213     6.8446   115.5402 </r>
       <r>     8.2102     3.4407   115.8463 </r>
       <r>     8.2992     5.6019   116.3447 </r>
       <r>     8.3882     6.8102   116.9506 </r>
       <r>     8.4771     3.5769   117.2688 </r>
       <r>     8.5661     4.1064   117.6342 </r>
       <r>     8.6551     6.5973   118.2211 </r>
       <r>     8.7440     2.3466   118.4299 </r>
       <r>     8.8330     2.2562   118.6306 </r>
       <r>     8.9220     4.0741   118.9930 </r>
       <r>     9.0109     4.6217   119.4042 </r>
       <r>     9.0999     3.1714   119.6864 </r>
       <r>     9.1889     3.7791   120.0226 </r>
       <r>     9.2778     2.3395   120.2307 </r>
       <r>     9.3668     4.1351   120.5986 </r>
       <r>     9.4558     5.5417   121.0916 </r>
       <r>     9.5447     5.2678   121.5603 </r>
       <r>     9.6337     2.7523   121.8051 </r>
       <r>     9.7227     4.5581   122.2107 </r>
       <r>     9.8116     6.8548   122.8205 </r>
       <r>     9.9006     4.3886   123.2109 </r>
       <r>     9.9896     7.0881   123.8415 </r>
       <r>    10.0785     5.6699   124.3460 </r>
       <r>    10.1675     5.3446   124.8215 </r>
       <r>    10.2565     5.0492   125.2707 </r>
       <r>    10.3454     6.8945   125.8840 </r>
       <r>    10.4344     5.8349   126.4031 </r>
       <r>    10.5234     3.9582   126.7553 </r>
       <r>    10.6123     4.8306   127.1851 </r>
       <r>    10.7013     6.0224   127.7208 </r>
       <r>    10.7903     3.7370   128.0533 </r>
       <r>    10.8792     5.2588   128.5212 </r>
       <r>    10.9682     4.7970   128.9479 </r>
       <r>    11.0572     3.5707   129.2656 </r>
       <r>    11.1461     5.6967   129.7724 </r>
       <r>    11.2351     5.4256   130.2551 </r>
       <r>    11.3241     6.2877   130.8145 </r>
       <r>    11.4130     6.9433   131.4322 </r>
       <r>    11.5020     5.4730   131.9191 </r>
       <r>    11.5910     7.7986   132.6130 </r>
       <r>    11.6799     5.9706   133.1441 </r>
       <r>    11.7689     6.1173   133.6884 </r>
       <r>    11.8579     5.2311   134.1538 </r>
       <r>    11.9468     1.3980   134.2781 </r>
       <r>    12.0358     4.0982   134.6427 </r>
       <r>    12.1248     4.5774   135.0500 </r>
       <r>    12.2137     2.7662   135.2961 </r>
       <r>    12.3027     5.2323   135.7616 </r>
       <r>    12.3916     5.4772   136.2488 </r>
       <r>    12.4806     4.6739   136.6647 </r>
       <r>    12.5696     4.6631   137.0795 </r>
       <r>    12.6585     4.0409   137.4390 </r>
       <r>    12.7475     4.8225   137.8681 </r>
       <r>    12.8365     2.4293   138.0842 </r>
       <r>    12.9254     5.1758   138.5447 </r>
       <r>    13.0144     6.1166   139.0888 </r>
       <r>    13.1034     7.5238   139.7582 </r>
       <r>    13.1923     4.9805   140.2013 </r>
       <r>    13.2813     5.6781   140.7065 </r>
       <r>    13.3703     5.9435   141.2352 </r>
       <r>    13.4592     5.7679   141.7484 </r>
       <r>    13.5482     3.4892   142.0588 </r>
       <r>    13.6372     6.0261   142.5949 </r>
       <r>    13.7261     5.7847   143.1096 </r>
       <r>    13.8151     5.4840   143.5974 </r>
       <r>    13.9041     5.3166   144.0704 </r>
       <r>    13.9930     5.3346   144.5450 </r>
       <r>    14.0820     4.1677   144.9158 </r>
       <r>    14.1710     7.0180   145.5402 </r>
       <r>    14.2599     6.9505   146.1586 </r>
       <r>    14.3489     5.2208   146.6230 </r>
       <r>    14.4379     6.5634   147.2069 </r>
       <r>    14.5268     5.3333   147.6814 </r>
       <r>    14.6158     4.4085   148.0736 </r>
       <r>    14.7048     5.8452   148.5937 </r>
       <r>    14.7937     8.0036   149.3057 </r>
       <r>    14.8827     8.1299   150.0290 </r>
       <r>    14.9717     7.4659   150.6932 </r>
       <r>    15.0606     4.9085   151.1299 </r>
       <r>    15.1496     4.4735   151.5279 </r>
       <r>    15.2386     4.0951   151.8922 </r>
       <r>    15.3275     8.9313   152.6868 </r>
       <r>    15.4165     7.0855   153.3172 </r>
       <r>    15.5055     6.1848   153.8674 </r>
       <r>    15.5944     7.0880   154.4980 </r>
       <r>    15.6834     4.4160   154.8909 </r>
       <r>    15.7724     4.2752   155.2712 </r>
       <r>    15.8613     5.6433   155.7733 </r>
       <r>    15.9503     6.0894   156.3150 </r>
       <r>    16.0393     7.3098   156.9653 </r>
       <r>    16.1282     7.2987   157.6147 </r>
       <r>    16.2172     4.1373   157.9828 </r>
       <r>    16.3062     5.7982   158.4986 </r>
       <r>    16.3951     4.7763   158.9235 </r>
       <r>    16.4841     4.9946   159.3679 </r>
       <r>    16.5731     2.9885   159.6338 </r>
       <r>    16.6620     1.4950   159.7668 </r>
       <r>    16.7510     0.2532   159.7893 </r>
       <r>    16.8400     1.4876   159.9216 </r>
       <r>    16.9289     0.8524   159.9975 </r>
       <r>    17.0179     0.0284   160.0000 </r>
       <r>    17.1069     0.0000   160.0000 </r>
       <r>    17.1958     0.0000   160.0000 </r>
       <r>    17.2848     0.0000   160.0000 </r>
       <r>    17.3738     0.0000   160.0000 </r>
       <r>    17.4627     0.0000   160.0000 </r>
       <r>    17.5517     0.0000   160.0000 </r>
       <r>    17.6407     0.0000   160.0000 </r>
       <r>    17.7296     0.0000   160.0000 </r>
       <r>    17.8186     0.0000   160.0000 </r>
       <r>    17.9076     0.0000   160.0000 </r>
       <r>    17.9965     0.0000   160.0000 </r>
       <r>    18.0855     0.0000   160.0000 </r>
      </set>
     </set>
    </array>
   </total>
  </dos>
 </calculation>
 <structure name="finalpos" >
  <crystal>
   <varray name="basis" >
    <v>       4.41858575       0.00000000       0.00647689 </v>
    <v>       0.00000000       6.88758105       0.00000000 </v>
    <v>      -2.11572084       0.00000000       7.61297143 </v>
   </varray>
   <i name="volume">    231.78273967 </i>
   <varray name="rec_basis" >
    <v>       0.22622460       0.00000000       0.06287008 </v>
    <v>       0.00000000       0.14518885       0.00000000 </v>
    <v>      -0.00019247       0.00000000       0.13130127 </v>
   </varray>
  </crystal>
  <varray name="positions" >
   <v>       0.32125411       0.24827764       0.15683651 </v>
   <v>       0.17874584       0.74827764       0.34316337 </v>
   <v>       0.67874584       0.75172236       0.84316337 </v>
   <v>       0.82125411       0.25172236       0.65683651 </v>
   <v>       0.76724883       0.02244519       0.34006836 </v>
   <v>       0.73275113       0.52244519       0.15993152 </v>
   <v>       0.23275113       0.97755481       0.65993152 </v>
   <v>       0.26724883       0.47755481       0.84006836 </v>
   <v>       0.22434047       0.36074499       0.46703901 </v>
   <v>       0.27565948       0.86074499       0.03296087 </v>
   <v>       0.77565948       0.63925501       0.53296087 </v>
   <v>       0.72434047       0.13925501       0.96703901 </v>
  </varray>
 </structure>
</modeling>
