 192 192   0   0
  0.1931523E+02  0.1767436E-08  0.1377516E-08  0.1580299E-08  0.5000000E-15
  1.000000000000000E-004
  CAR 
 unknown system                          
     13.15463724     -8.37062679  301      6.46164132      1.00000000
     -8.371  0.0000E+00  0.0000E+00
     -8.299  0.0000E+00  0.0000E+00
     -8.227  0.0000E+00  0.0000E+00
     -8.155  0.0000E+00  0.0000E+00
     -8.084  0.0000E+00  0.0000E+00
     -8.012  0.0000E+00  0.0000E+00
     -7.940  0.0000E+00  0.0000E+00
     -7.868  0.0000E+00  0.0000E+00
     -7.797  0.0000E+00  0.0000E+00
     -7.725  0.0000E+00  0.0000E+00
     -7.653  0.2764E-12  0.1983E-13
     -7.581  0.1530E-06  0.1098E-07
     -7.510  0.1569E-02  0.1126E-03
     -7.438  0.3671E+00  0.2645E-01
     -7.366  0.5491E+01  0.4205E+00
     -7.294  0.2299E+02  0.2070E+01
     -7.223  0.4301E+02  0.5156E+01
     -7.151  0.5039E+02  0.8772E+01
     -7.079  0.7151E+02  0.1390E+02
     -7.007  0.1042E+03  0.2138E+02
     -6.936  0.1347E+03  0.3104E+02
     -6.864  0.2017E+03  0.4551E+02
     -6.792  0.2949E+03  0.6667E+02
     -6.720  0.3593E+03  0.9245E+02
     -6.649  0.2860E+03  0.1130E+03
     -6.577  0.1778E+03  0.1257E+03
     -6.505  0.3116E+02  0.1280E+03
     -6.433  0.4961E+00  0.1280E+03
     -6.362  0.3022E-03  0.1280E+03
     -6.290  0.4290E-08  0.1280E+03
     -6.218  0.3868E-15  0.1280E+03
     -6.146  0.0000E+00  0.1280E+03
     -6.075  0.0000E+00  0.1280E+03
     -6.003  0.0000E+00  0.1280E+03
     -5.931  0.0000E+00  0.1280E+03
     -5.859  0.0000E+00  0.1280E+03
     -5.788  0.0000E+00  0.1280E+03
     -5.716  0.0000E+00  0.1280E+03
     -5.644  0.0000E+00  0.1280E+03
     -5.572  0.0000E+00  0.1280E+03
     -5.501  0.0000E+00  0.1280E+03
     -5.429  0.0000E+00  0.1280E+03
     -5.357  0.0000E+00  0.1280E+03
     -5.285  0.0000E+00  0.1280E+03
     -5.214  0.0000E+00  0.1280E+03
     -5.142  0.0000E+00  0.1280E+03
     -5.070  0.0000E+00  0.1280E+03
     -4.998  0.0000E+00  0.1280E+03
     -4.927  0.0000E+00  0.1280E+03
     -4.855  0.0000E+00  0.1280E+03
     -4.783  0.0000E+00  0.1280E+03
     -4.711  0.0000E+00  0.1280E+03
     -4.640  0.0000E+00  0.1280E+03
     -4.568  0.0000E+00  0.1280E+03
     -4.496  0.0000E+00  0.1280E+03
     -4.424  0.0000E+00  0.1280E+03
     -4.353  0.0000E+00  0.1280E+03
     -4.281  0.0000E+00  0.1280E+03
     -4.209  0.0000E+00  0.1280E+03
     -4.137  0.0000E+00  0.1280E+03
     -4.066  0.0000E+00  0.1280E+03
     -3.994  0.0000E+00  0.1280E+03
     -3.922  0.0000E+00  0.1280E+03
     -3.850  0.0000E+00  0.1280E+03
     -3.779  0.0000E+00  0.1280E+03
     -3.707  0.0000E+00  0.1280E+03
     -3.635  0.0000E+00  0.1280E+03
     -3.563  0.0000E+00  0.1280E+03
     -3.492  0.0000E+00  0.1280E+03
     -3.420  0.0000E+00  0.1280E+03
     -3.348  0.0000E+00  0.1280E+03
     -3.276  0.0000E+00  0.1280E+03
     -3.205  0.0000E+00  0.1280E+03
     -3.133  0.0000E+00  0.1280E+03
     -3.061  0.0000E+00  0.1280E+03
     -2.989  0.0000E+00  0.1280E+03
     -2.918  0.0000E+00  0.1280E+03
     -2.846  0.0000E+00  0.1280E+03
     -2.774  0.0000E+00  0.1280E+03
     -2.702  0.0000E+00  0.1280E+03
     -2.631  0.0000E+00  0.1280E+03
     -2.559  0.0000E+00  0.1280E+03
     -2.487  0.0000E+00  0.1280E+03
     -2.415  0.0000E+00  0.1280E+03
     -2.344  0.0000E+00  0.1280E+03
     -2.272  0.0000E+00  0.1280E+03
     -2.200  0.0000E+00  0.1280E+03
     -2.128  0.0000E+00  0.1280E+03
     -2.057  0.0000E+00  0.1280E+03
     -1.985  0.0000E+00  0.1280E+03
     -1.913  0.0000E+00  0.1280E+03
     -1.841  0.0000E+00  0.1280E+03
     -1.770  0.0000E+00  0.1280E+03
     -1.698  0.0000E+00  0.1280E+03
     -1.626  0.0000E+00  0.1280E+03
     -1.554  0.0000E+00  0.1280E+03
     -1.483  0.0000E+00  0.1280E+03
     -1.411  0.0000E+00  0.1280E+03
     -1.339  0.0000E+00  0.1280E+03
     -1.267  0.0000E+00  0.1280E+03
     -1.196  0.0000E+00  0.1280E+03
     -1.124  0.0000E+00  0.1280E+03
     -1.052  0.0000E+00  0.1280E+03
     -0.980  0.0000E+00  0.1280E+03
     -0.909  0.0000E+00  0.1280E+03
     -0.837  0.0000E+00  0.1280E+03
     -0.765  0.0000E+00  0.1280E+03
     -0.693  0.0000E+00  0.1280E+03
     -0.622  0.0000E+00  0.1280E+03
     -0.550  0.0000E+00  0.1280E+03
     -0.478  0.5938E-13  0.1280E+03
     -0.406  0.5863E-07  0.1280E+03
     -0.335  0.1058E-02  0.1280E+03
     -0.263  0.4026E+00  0.1280E+03
     -0.191  0.5622E+01  0.1284E+03
     -0.119  0.1385E+02  0.1294E+03
     -0.048  0.4556E+02  0.1327E+03
      0.024  0.5393E+02  0.1366E+03
      0.096  0.6805E+02  0.1414E+03
      0.168  0.2131E+03  0.1567E+03
      0.239  0.2746E+03  0.1764E+03
      0.311  0.2132E+03  0.1917E+03
      0.383  0.2364E+03  0.2087E+03
      0.455  0.2915E+03  0.2296E+03
      0.526  0.2151E+03  0.2450E+03
      0.598  0.1972E+03  0.2592E+03
      0.670  0.2093E+03  0.2742E+03
      0.742  0.2223E+03  0.2902E+03
      0.813  0.2914E+03  0.3111E+03
      0.885  0.2956E+03  0.3323E+03
      0.957  0.2618E+03  0.3511E+03
      1.029  0.3181E+03  0.3739E+03
      1.100  0.3135E+03  0.3964E+03
      1.172  0.2851E+03  0.4168E+03
      1.244  0.2381E+03  0.4339E+03
      1.316  0.2497E+03  0.4518E+03
      1.387  0.3266E+03  0.4753E+03
      1.459  0.4211E+03  0.5055E+03
      1.531  0.4095E+03  0.5349E+03
      1.603  0.4441E+03  0.5667E+03
      1.674  0.5169E+03  0.6038E+03
      1.746  0.5255E+03  0.6415E+03
      1.818  0.5135E+03  0.6784E+03
      1.890  0.3920E+03  0.7065E+03
      1.961  0.4468E+03  0.7385E+03
      2.033  0.4446E+03  0.7704E+03
      2.105  0.4739E+03  0.8044E+03
      2.177  0.5329E+03  0.8427E+03
      2.249  0.5775E+03  0.8841E+03
      2.320  0.6056E+03  0.9276E+03
      2.392  0.6706E+03  0.9757E+03
      2.464  0.6142E+03  0.1020E+04
      2.536  0.5516E+03  0.1059E+04
      2.607  0.5592E+03  0.1099E+04
      2.679  0.5717E+03  0.1140E+04
      2.751  0.6377E+03  0.1186E+04
      2.823  0.6965E+03  0.1236E+04
      2.894  0.5619E+03  0.1277E+04
      2.966  0.4700E+03  0.1310E+04
      3.038  0.4622E+03  0.1343E+04
      3.110  0.4538E+03  0.1376E+04
      3.181  0.4273E+03  0.1407E+04
      3.253  0.3621E+03  0.1433E+04
      3.325  0.2299E+03  0.1449E+04
      3.397  0.1860E+03  0.1462E+04
      3.468  0.1857E+03  0.1476E+04
      3.540  0.1903E+03  0.1489E+04
      3.612  0.2049E+03  0.1504E+04
      3.684  0.1804E+03  0.1517E+04
      3.755  0.1220E+03  0.1526E+04
      3.827  0.9450E+02  0.1533E+04
      3.899  0.1006E+03  0.1540E+04
      3.971  0.1210E+03  0.1549E+04
      4.042  0.9800E+02  0.1556E+04
      4.114  0.1016E+03  0.1563E+04
      4.186  0.1566E+03  0.1574E+04
      4.258  0.9736E+02  0.1581E+04
      4.329  0.8727E+02  0.1587E+04
      4.401  0.9345E+02  0.1594E+04
      4.473  0.9193E+02  0.1601E+04
      4.545  0.1490E+03  0.1611E+04
      4.616  0.1166E+03  0.1620E+04
      4.688  0.9275E+02  0.1626E+04
      4.760  0.1127E+03  0.1634E+04
      4.832  0.8565E+02  0.1641E+04
      4.903  0.1019E+03  0.1648E+04
      4.975  0.1700E+03  0.1660E+04
      5.047  0.1303E+03  0.1669E+04
      5.119  0.6919E+02  0.1674E+04
      5.190  0.9390E+02  0.1681E+04
      5.262  0.7387E+02  0.1686E+04
      5.334  0.1237E+03  0.1695E+04
      5.406  0.1440E+03  0.1706E+04
      5.477  0.1191E+03  0.1714E+04
      5.549  0.7245E+02  0.1719E+04
      5.621  0.9339E+02  0.1726E+04
      5.693  0.1414E+03  0.1736E+04
      5.764  0.1559E+03  0.1747E+04
      5.836  0.1067E+03  0.1755E+04
      5.908  0.1204E+03  0.1764E+04
      5.980  0.1167E+03  0.1772E+04
      6.051  0.8578E+02  0.1778E+04
      6.123  0.6228E+02  0.1783E+04
      6.195  0.4233E+02  0.1786E+04
      6.267  0.3735E+02  0.1788E+04
      6.338  0.3043E+02  0.1791E+04
      6.410  0.1366E+02  0.1792E+04
      6.482  0.7503E+01  0.1792E+04
      6.554  0.2426E+01  0.1792E+04
      6.625  0.4514E+01  0.1793E+04
      6.697  0.2834E+01  0.1793E+04
      6.769  0.2378E+01  0.1793E+04
      6.841  0.1671E+01  0.1793E+04
      6.912  0.1128E+02  0.1794E+04
      6.984  0.1506E+02  0.1795E+04
      7.056  0.1042E+02  0.1796E+04
      7.128  0.1049E+02  0.1796E+04
      7.199  0.2548E+02  0.1798E+04
      7.271  0.3111E+02  0.1801E+04
      7.343  0.1851E+02  0.1802E+04
      7.415  0.3195E+02  0.1804E+04
      7.486  0.3516E+02  0.1807E+04
      7.558  0.3723E+02  0.1809E+04
      7.630  0.5722E+02  0.1813E+04
      7.702  0.6739E+02  0.1818E+04
      7.773  0.7266E+02  0.1824E+04
      7.845  0.7350E+02  0.1829E+04
      7.917  0.6233E+02  0.1833E+04
      7.989  0.5795E+02  0.1837E+04
      8.060  0.7773E+02  0.1843E+04
      8.132  0.8143E+02  0.1849E+04
      8.204  0.8320E+02  0.1855E+04
      8.276  0.7341E+02  0.1860E+04
      8.347  0.6635E+02  0.1865E+04
      8.419  0.7403E+02  0.1870E+04
      8.491  0.8883E+02  0.1877E+04
      8.563  0.7549E+02  0.1882E+04
      8.634  0.5741E+02  0.1886E+04
      8.706  0.8122E+02  0.1892E+04
      8.778  0.8431E+02  0.1898E+04
      8.850  0.5768E+02  0.1902E+04
      8.921  0.4612E+02  0.1905E+04
      8.993  0.4026E+02  0.1908E+04
      9.065  0.5281E+02  0.1912E+04
      9.137  0.8571E+02  0.1918E+04
      9.208  0.6413E+02  0.1923E+04
      9.280  0.4931E+02  0.1926E+04
      9.352  0.5691E+02  0.1930E+04
      9.424  0.6787E+02  0.1935E+04
      9.495  0.6310E+02  0.1940E+04
      9.567  0.4090E+02  0.1943E+04
      9.639  0.7107E+02  0.1948E+04
      9.711  0.1038E+03  0.1955E+04
      9.782  0.1076E+03  0.1963E+04
      9.854  0.8802E+02  0.1969E+04
      9.926  0.7651E+02  0.1975E+04
      9.998  0.5774E+02  0.1979E+04
     10.069  0.8403E+02  0.1985E+04
     10.141  0.8817E+02  0.1991E+04
     10.213  0.1001E+03  0.1999E+04
     10.285  0.1087E+03  0.2006E+04
     10.356  0.1135E+03  0.2014E+04
     10.428  0.1102E+03  0.2022E+04
     10.500  0.9320E+02  0.2029E+04
     10.572  0.7359E+02  0.2034E+04
     10.643  0.7593E+02  0.2040E+04
     10.715  0.6951E+02  0.2045E+04
     10.787  0.6799E+02  0.2050E+04
     10.859  0.7242E+02  0.2055E+04
     10.930  0.7208E+02  0.2060E+04
     11.002  0.5541E+02  0.2064E+04
     11.074  0.9330E+02  0.2071E+04
     11.146  0.1050E+03  0.2078E+04
     11.217  0.8043E+02  0.2084E+04
     11.289  0.9512E+02  0.2091E+04
     11.361  0.8155E+02  0.2097E+04
     11.433  0.1068E+03  0.2104E+04
     11.504  0.1298E+03  0.2114E+04
     11.576  0.1183E+03  0.2122E+04
     11.648  0.1053E+03  0.2130E+04
     11.720  0.6279E+02  0.2134E+04
     11.791  0.9024E+02  0.2141E+04
     11.863  0.5034E+02  0.2144E+04
     11.935  0.2700E+02  0.2146E+04
     12.007  0.1390E+02  0.2147E+04
     12.078  0.1919E+02  0.2149E+04
     12.150  0.1335E+02  0.2150E+04
     12.222  0.5839E+01  0.2150E+04
     12.294  0.4845E+00  0.2150E+04
     12.365  0.1741E-02  0.2150E+04
     12.437  0.1576E-06  0.2150E+04
     12.509  0.2785E-12  0.2150E+04
     12.581  0.0000E+00  0.2150E+04
     12.652  0.0000E+00  0.2150E+04
     12.724  0.0000E+00  0.2150E+04
     12.796  0.0000E+00  0.2150E+04
     12.868  0.0000E+00  0.2150E+04
     12.939  0.0000E+00  0.2150E+04
     13.011  0.0000E+00  0.2150E+04
     13.083  0.0000E+00  0.2150E+04
     13.155  0.0000E+00  0.2150E+04
