 192 192   0   0
  0.1931523E+02  0.1767436E-08  0.1377516E-08  0.1580299E-08  0.5000000E-15
  1.000000000000000E-004
  CAR 
 unknown system                          
     13.15440739     -8.37052530  301      6.46162225      1.00000000
     -8.371  0.0000E+00  0.0000E+00
     -8.299  0.0000E+00  0.0000E+00
     -8.227  0.0000E+00  0.0000E+00
     -8.155  0.0000E+00  0.0000E+00
     -8.084  0.0000E+00  0.0000E+00
     -8.012  0.0000E+00  0.0000E+00
     -7.940  0.0000E+00  0.0000E+00
     -7.868  0.0000E+00  0.0000E+00
     -7.797  0.0000E+00  0.0000E+00
     -7.725  0.0000E+00  0.0000E+00
     -7.653  0.2766E-12  0.1985E-13
     -7.581  0.1531E-06  0.1098E-07
     -7.510  0.1570E-02  0.1126E-03
     -7.438  0.3671E+00  0.2645E-01
     -7.366  0.5491E+01  0.4205E+00
     -7.294  0.2299E+02  0.2070E+01
     -7.223  0.4301E+02  0.5156E+01
     -7.151  0.5040E+02  0.8772E+01
     -7.079  0.7151E+02  0.1390E+02
     -7.007  0.1042E+03  0.2138E+02
     -6.936  0.1347E+03  0.3104E+02
     -6.864  0.2017E+03  0.4551E+02
     -6.792  0.2948E+03  0.6666E+02
     -6.720  0.3593E+03  0.9244E+02
     -6.649  0.2860E+03  0.1130E+03
     -6.577  0.1779E+03  0.1257E+03
     -6.505  0.3119E+02  0.1280E+03
     -6.433  0.4967E+00  0.1280E+03
     -6.362  0.3025E-03  0.1280E+03
     -6.290  0.4294E-08  0.1280E+03
     -6.218  0.3868E-15  0.1280E+03
     -6.146  0.0000E+00  0.1280E+03
     -6.075  0.0000E+00  0.1280E+03
     -6.003  0.0000E+00  0.1280E+03
     -5.931  0.0000E+00  0.1280E+03
     -5.859  0.0000E+00  0.1280E+03
     -5.788  0.0000E+00  0.1280E+03
     -5.716  0.0000E+00  0.1280E+03
     -5.644  0.0000E+00  0.1280E+03
     -5.572  0.0000E+00  0.1280E+03
     -5.501  0.0000E+00  0.1280E+03
     -5.429  0.0000E+00  0.1280E+03
     -5.357  0.0000E+00  0.1280E+03
     -5.285  0.0000E+00  0.1280E+03
     -5.214  0.0000E+00  0.1280E+03
     -5.142  0.0000E+00  0.1280E+03
     -5.070  0.0000E+00  0.1280E+03
     -4.998  0.0000E+00  0.1280E+03
     -4.927  0.0000E+00  0.1280E+03
     -4.855  0.0000E+00  0.1280E+03
     -4.783  0.0000E+00  0.1280E+03
     -4.711  0.0000E+00  0.1280E+03
     -4.640  0.0000E+00  0.1280E+03
     -4.568  0.0000E+00  0.1280E+03
     -4.496  0.0000E+00  0.1280E+03
     -4.424  0.0000E+00  0.1280E+03
     -4.353  0.0000E+00  0.1280E+03
     -4.281  0.0000E+00  0.1280E+03
     -4.209  0.0000E+00  0.1280E+03
     -4.137  0.0000E+00  0.1280E+03
     -4.066  0.0000E+00  0.1280E+03
     -3.994  0.0000E+00  0.1280E+03
     -3.922  0.0000E+00  0.1280E+03
     -3.850  0.0000E+00  0.1280E+03
     -3.779  0.0000E+00  0.1280E+03
     -3.707  0.0000E+00  0.1280E+03
     -3.635  0.0000E+00  0.1280E+03
     -3.563  0.0000E+00  0.1280E+03
     -3.492  0.0000E+00  0.1280E+03
     -3.420  0.0000E+00  0.1280E+03
     -3.348  0.0000E+00  0.1280E+03
     -3.276  0.0000E+00  0.1280E+03
     -3.205  0.0000E+00  0.1280E+03
     -3.133  0.0000E+00  0.1280E+03
     -3.061  0.0000E+00  0.1280E+03
     -2.989  0.0000E+00  0.1280E+03
     -2.918  0.0000E+00  0.1280E+03
     -2.846  0.0000E+00  0.1280E+03
     -2.774  0.0000E+00  0.1280E+03
     -2.702  0.0000E+00  0.1280E+03
     -2.631  0.0000E+00  0.1280E+03
     -2.559  0.0000E+00  0.1280E+03
     -2.487  0.0000E+00  0.1280E+03
     -2.415  0.0000E+00  0.1280E+03
     -2.344  0.0000E+00  0.1280E+03
     -2.272  0.0000E+00  0.1280E+03
     -2.200  0.0000E+00  0.1280E+03
     -2.128  0.0000E+00  0.1280E+03
     -2.057  0.0000E+00  0.1280E+03
     -1.985  0.0000E+00  0.1280E+03
     -1.913  0.0000E+00  0.1280E+03
     -1.841  0.0000E+00  0.1280E+03
     -1.770  0.0000E+00  0.1280E+03
     -1.698  0.0000E+00  0.1280E+03
     -1.626  0.0000E+00  0.1280E+03
     -1.554  0.0000E+00  0.1280E+03
     -1.483  0.0000E+00  0.1280E+03
     -1.411  0.0000E+00  0.1280E+03
     -1.339  0.0000E+00  0.1280E+03
     -1.267  0.0000E+00  0.1280E+03
     -1.196  0.0000E+00  0.1280E+03
     -1.124  0.0000E+00  0.1280E+03
     -1.052  0.0000E+00  0.1280E+03
     -0.980  0.0000E+00  0.1280E+03
     -0.909  0.0000E+00  0.1280E+03
     -0.837  0.0000E+00  0.1280E+03
     -0.765  0.0000E+00  0.1280E+03
     -0.693  0.0000E+00  0.1280E+03
     -0.622  0.0000E+00  0.1280E+03
     -0.550  0.0000E+00  0.1280E+03
     -0.478  0.5919E-13  0.1280E+03
     -0.406  0.5838E-07  0.1280E+03
     -0.335  0.1055E-02  0.1280E+03
     -0.263  0.4019E+00  0.1280E+03
     -0.191  0.5616E+01  0.1284E+03
     -0.119  0.1383E+02  0.1294E+03
     -0.048  0.4551E+02  0.1327E+03
      0.024  0.5397E+02  0.1366E+03
      0.096  0.6793E+02  0.1414E+03
      0.168  0.2128E+03  0.1567E+03
      0.239  0.2747E+03  0.1764E+03
      0.311  0.2133E+03  0.1917E+03
      0.383  0.2363E+03  0.2087E+03
      0.455  0.2915E+03  0.2296E+03
      0.526  0.2153E+03  0.2450E+03
      0.598  0.1972E+03  0.2592E+03
      0.670  0.2092E+03  0.2742E+03
      0.742  0.2222E+03  0.2901E+03
      0.813  0.2912E+03  0.3110E+03
      0.885  0.2959E+03  0.3323E+03
      0.957  0.2618E+03  0.3510E+03
      1.029  0.3181E+03  0.3739E+03
      1.100  0.3135E+03  0.3964E+03
      1.172  0.2852E+03  0.4168E+03
      1.244  0.2382E+03  0.4339E+03
      1.316  0.2497E+03  0.4518E+03
      1.387  0.3266E+03  0.4753E+03
      1.459  0.4210E+03  0.5055E+03
      1.531  0.4095E+03  0.5348E+03
      1.603  0.4439E+03  0.5667E+03
      1.674  0.5168E+03  0.6038E+03
      1.746  0.5255E+03  0.6415E+03
      1.818  0.5136E+03  0.6783E+03
      1.890  0.3921E+03  0.7065E+03
      1.961  0.4468E+03  0.7385E+03
      2.033  0.4447E+03  0.7704E+03
      2.105  0.4737E+03  0.8044E+03
      2.177  0.5326E+03  0.8426E+03
      2.248  0.5775E+03  0.8841E+03
      2.320  0.6055E+03  0.9275E+03
      2.392  0.6706E+03  0.9756E+03
      2.464  0.6142E+03  0.1020E+04
      2.535  0.5516E+03  0.1059E+04
      2.607  0.5592E+03  0.1099E+04
      2.679  0.5717E+03  0.1140E+04
      2.751  0.6375E+03  0.1186E+04
      2.822  0.6965E+03  0.1236E+04
      2.894  0.5623E+03  0.1276E+04
      2.966  0.4701E+03  0.1310E+04
      3.038  0.4622E+03  0.1343E+04
      3.109  0.4540E+03  0.1376E+04
      3.181  0.4273E+03  0.1407E+04
      3.253  0.3624E+03  0.1433E+04
      3.325  0.2300E+03  0.1449E+04
      3.396  0.1861E+03  0.1462E+04
      3.468  0.1856E+03  0.1476E+04
      3.540  0.1904E+03  0.1489E+04
      3.612  0.2049E+03  0.1504E+04
      3.683  0.1804E+03  0.1517E+04
      3.755  0.1221E+03  0.1526E+04
      3.827  0.9453E+02  0.1533E+04
      3.899  0.1006E+03  0.1540E+04
      3.970  0.1210E+03  0.1548E+04
      4.042  0.9802E+02  0.1556E+04
      4.114  0.1015E+03  0.1563E+04
      4.186  0.1565E+03  0.1574E+04
      4.257  0.9748E+02  0.1581E+04
      4.329  0.8727E+02  0.1587E+04
      4.401  0.9345E+02  0.1594E+04
      4.473  0.9193E+02  0.1601E+04
      4.544  0.1490E+03  0.1611E+04
      4.616  0.1166E+03  0.1620E+04
      4.688  0.9275E+02  0.1626E+04
      4.760  0.1128E+03  0.1634E+04
      4.831  0.8567E+02  0.1641E+04
      4.903  0.1019E+03  0.1648E+04
      4.975  0.1700E+03  0.1660E+04
      5.047  0.1303E+03  0.1669E+04
      5.118  0.6916E+02  0.1674E+04
      5.190  0.9388E+02  0.1681E+04
      5.262  0.7386E+02  0.1686E+04
      5.334  0.1236E+03  0.1695E+04
      5.405  0.1440E+03  0.1706E+04
      5.477  0.1192E+03  0.1714E+04
      5.549  0.7253E+02  0.1719E+04
      5.621  0.9331E+02  0.1726E+04
      5.692  0.1413E+03  0.1736E+04
      5.764  0.1560E+03  0.1747E+04
      5.836  0.1068E+03  0.1755E+04
      5.908  0.1203E+03  0.1764E+04
      5.979  0.1167E+03  0.1772E+04
      6.051  0.8581E+02  0.1778E+04
      6.123  0.6234E+02  0.1783E+04
      6.195  0.4234E+02  0.1786E+04
      6.266  0.3736E+02  0.1788E+04
      6.338  0.3044E+02  0.1791E+04
      6.410  0.1368E+02  0.1792E+04
      6.482  0.7513E+01  0.1792E+04
      6.553  0.2432E+01  0.1792E+04
      6.625  0.4514E+01  0.1793E+04
      6.697  0.2832E+01  0.1793E+04
      6.769  0.2378E+01  0.1793E+04
      6.840  0.1663E+01  0.1793E+04
      6.912  0.1129E+02  0.1794E+04
      6.984  0.1505E+02  0.1795E+04
      7.056  0.1042E+02  0.1796E+04
      7.127  0.1049E+02  0.1796E+04
      7.199  0.2548E+02  0.1798E+04
      7.271  0.3111E+02  0.1801E+04
      7.343  0.1852E+02  0.1802E+04
      7.414  0.3198E+02  0.1804E+04
      7.486  0.3513E+02  0.1807E+04
      7.558  0.3722E+02  0.1809E+04
      7.630  0.5728E+02  0.1813E+04
      7.701  0.6733E+02  0.1818E+04
      7.773  0.7267E+02  0.1824E+04
      7.845  0.7349E+02  0.1829E+04
      7.917  0.6231E+02  0.1833E+04
      7.988  0.5799E+02  0.1837E+04
      8.060  0.7766E+02  0.1843E+04
      8.132  0.8143E+02  0.1849E+04
      8.204  0.8320E+02  0.1855E+04
      8.275  0.7338E+02  0.1860E+04
      8.347  0.6641E+02  0.1865E+04
      8.419  0.7398E+02  0.1870E+04
      8.491  0.8887E+02  0.1877E+04
      8.562  0.7552E+02  0.1882E+04
      8.634  0.5737E+02  0.1886E+04
      8.706  0.8118E+02  0.1892E+04
      8.778  0.8430E+02  0.1898E+04
      8.849  0.5778E+02  0.1902E+04
      8.921  0.4611E+02  0.1905E+04
      8.993  0.4024E+02  0.1908E+04
      9.065  0.5280E+02  0.1912E+04
      9.136  0.8561E+02  0.1918E+04
      9.208  0.6432E+02  0.1923E+04
      9.280  0.4924E+02  0.1926E+04
      9.352  0.5683E+02  0.1930E+04
      9.423  0.6788E+02  0.1935E+04
      9.495  0.6314E+02  0.1940E+04
      9.567  0.4085E+02  0.1943E+04
      9.639  0.7097E+02  0.1948E+04
      9.710  0.1038E+03  0.1955E+04
      9.782  0.1075E+03  0.1963E+04
      9.854  0.8813E+02  0.1969E+04
      9.926  0.7647E+02  0.1975E+04
      9.997  0.5775E+02  0.1979E+04
     10.069  0.8398E+02  0.1985E+04
     10.141  0.8817E+02  0.1991E+04
     10.213  0.1001E+03  0.1998E+04
     10.284  0.1087E+03  0.2006E+04
     10.356  0.1135E+03  0.2014E+04
     10.428  0.1101E+03  0.2022E+04
     10.500  0.9329E+02  0.2029E+04
     10.571  0.7365E+02  0.2034E+04
     10.643  0.7593E+02  0.2040E+04
     10.715  0.6955E+02  0.2045E+04
     10.787  0.6796E+02  0.2050E+04
     10.858  0.7236E+02  0.2055E+04
     10.930  0.7215E+02  0.2060E+04
     11.002  0.5540E+02  0.2064E+04
     11.074  0.9314E+02  0.2071E+04
     11.145  0.1051E+03  0.2078E+04
     11.217  0.8042E+02  0.2084E+04
     11.289  0.9516E+02  0.2091E+04
     11.361  0.8151E+02  0.2097E+04
     11.432  0.1067E+03  0.2104E+04
     11.504  0.1297E+03  0.2114E+04
     11.576  0.1183E+03  0.2122E+04
     11.648  0.1055E+03  0.2130E+04
     11.719  0.6276E+02  0.2134E+04
     11.791  0.9020E+02  0.2141E+04
     11.863  0.5054E+02  0.2144E+04
     11.935  0.2699E+02  0.2146E+04
     12.006  0.1393E+02  0.2147E+04
     12.078  0.1921E+02  0.2149E+04
     12.150  0.1340E+02  0.2150E+04
     12.222  0.5863E+01  0.2150E+04
     12.293  0.4887E+00  0.2150E+04
     12.365  0.1751E-02  0.2150E+04
     12.437  0.1581E-06  0.2150E+04
     12.509  0.2789E-12  0.2150E+04
     12.580  0.0000E+00  0.2150E+04
     12.652  0.0000E+00  0.2150E+04
     12.724  0.0000E+00  0.2150E+04
     12.796  0.0000E+00  0.2150E+04
     12.867  0.0000E+00  0.2150E+04
     12.939  0.0000E+00  0.2150E+04
     13.011  0.0000E+00  0.2150E+04
     13.083  0.0000E+00  0.2150E+04
     13.154  0.0000E+00  0.2150E+04
