# epsilon and Z* of atoms 1 3 5 7 9 10 11 12
  59.20489588    0.00689909    0.00000000    0.00595665   21.68963845    0.00000000    0.00000000    0.00000000   22.66887225 
   1.22006141   -0.28313280   -0.11473741   -0.13092671    1.49159300   -0.13854865   -0.00188508    0.09313009    1.47961397 
   1.21237300    0.33838834   -0.10497745    0.13127480    1.49229328    0.13985464   -0.00439363   -0.09197319    1.47868004 
   1.21983643    0.28311299   -0.11505061    0.13058014    1.49227269    0.13861861   -0.00201263   -0.09326495    1.47979407 
   1.21230622   -0.33852806    0.10520218   -0.13137080    1.49274969    0.13995805    0.00454524   -0.09201871    1.47897982 
  -2.46531770    0.02257122    0.00000000    0.38664008   -2.98328329    0.00000000    0.00000000    0.00000000   -2.95939326 
  -2.46406761   -0.02170273    0.00000000   -0.38560787   -2.98480818    0.00000000    0.00000000    0.00000000   -2.95959696 
  -2.39939203    0.13517281    0.00000000    0.38209904   -2.98513024    0.00000000    0.00000000    0.00000000   -2.95751205 
  -2.40037679   -0.13572224    0.00000000   -0.38224610   -2.98459560    0.00000000    0.00000000    0.00000000   -2.95763353 