144  
36   

1    
  0.0099999999506871   0.0000009931054020   0.0000000000000000
  -0.0327150500    0.0108876500    0.0020536500
   0.0001783100    0.0001344100   -0.0000429800
  -0.0000483100    0.0001161300   -0.0000950200
   0.0000168500    0.0000095800   -0.0000147900
  -0.0003908200   -0.0002375000    0.0000908600
   0.0001363400    0.0001136900   -0.0001761600
  -0.0000530500    0.0001122600   -0.0000249400
   0.0000054600    0.0000764800   -0.0000425000
  -0.0003906500   -0.0002597500   -0.0002077900
   0.0001362900    0.0001269300    0.0000675900
  -0.0000529000    0.0001583100   -0.0000779800
   0.0000054200    0.0000695700   -0.0000207700
   0.0024991000   -0.0006682900    0.0000788300
   0.0049607500    0.0060676100    0.0002030400
   0.0000397700   -0.0000496400    0.0000022900
   0.0002893200   -0.0004169600   -0.0001996100
   0.0001062200   -0.0000728700   -0.0001355100
   0.0005209700    0.0004138300    0.0006294700
   0.0000325800   -0.0000603400   -0.0000239400
   0.0000062700   -0.0000316700   -0.0000358700
   0.0001061700   -0.0000838400    0.0000513500
   0.0005200800    0.0004766200   -0.0007699000
   0.0000324600   -0.0000584400   -0.0000246300
   0.0000061500   -0.0000885000   -0.0000278600
  -0.0000746100    0.0000120700    0.0000656700
   0.0000830500    0.0000508100    0.0000658700
  -0.0000755800    0.0000439600    0.0001187300
   0.0000831200   -0.0000070100    0.0000149900
  -0.0001182700   -0.0008559600   -0.0002867900
   0.0001381400    0.0000456900    0.0000134500
  -0.0001187400    0.0001394000    0.0000135600
   0.0001379100   -0.0000266800    0.0000700300
  -0.0000206900   -0.0000063700   -0.0000259100
   0.0000760700    0.0000575500    0.0000521900
  -0.0000207400    0.0000160600    0.0000411400
   0.0000762900   -0.0000077600    0.0000788200
   0.0000128800    0.0000053200    0.0000474500
   0.0000140800   -0.0000225700    0.0000019900
   0.0000263700   -0.0000597600    0.0001031100
   0.0000265000   -0.0000172600    0.0000459200
   0.0005096600    0.0009678200   -0.0002083100
   0.0005106400    0.0000375100    0.0001497900
  -0.0000097900   -0.0000899300    0.0000272800
  -0.0000095200   -0.0000035900    0.0000664300
   0.0000273300   -0.0000104600    0.0000224400
   0.0000272600   -0.0000209300    0.0000642700
   0.0000326700   -0.0000711300    0.0000150100
   0.0000328800   -0.0000378300    0.0000252800
   0.0004003900   -0.0004126400    0.0005019900
   0.0004377900    0.0000128100   -0.0001388100
   0.0000406100    0.0000820800    0.0000195700
   0.0000307700   -0.0000574400   -0.0000251500
   0.0004353000   -0.0003380300   -0.0008729800
   0.0004022900    0.0000740000    0.0001662200
   0.0000306200    0.0000275200   -0.0000319200
   0.0000410500   -0.0000623300    0.0000029200
   0.0001292100   -0.0001161900   -0.0000294000
   0.0001301800   -0.0000141100   -0.0000205400
   0.0000185600   -0.0000220600   -0.0000101500
   0.0000186100   -0.0000025200   -0.0000130800
   0.0023813900    0.0004001700    0.0077075100
   0.0002426600    0.0000601800   -0.0000473900
  -0.0000595200   -0.0001378500    0.0000392100
   0.0000488200    0.0000232500   -0.0000220400
   0.0023827100    0.0006070400   -0.0077192200
   0.0002427300    0.0000159700    0.0000849200
  -0.0000599500   -0.0000505300   -0.0000076100
   0.0000488200    0.0000061100   -0.0000126300
  -0.0001407900    0.0000660700   -0.0000007200
   0.0000799500   -0.0000148800   -0.0000054000
  -0.0000311800    0.0000064900   -0.0000015100
   0.0000357300    0.0000162100   -0.0000172400
  -0.0004393500    0.0002284100    0.0000552200
   0.0001587600   -0.0001200000    0.0001134500
  -0.0004391100   -0.0001278500   -0.0001010500
   0.0001585400    0.0000000200    0.0000401600
  -0.0000947100    0.0003775500    0.0000670100
   0.0001053700   -0.0000545400    0.0000050900
  -0.0000944200   -0.0000801400    0.0001606900
   0.0001059100    0.0000318100    0.0000003300
  -0.0000141400    0.0000340500    0.0000380300
   0.0000630500    0.0000147700    0.0000047000
  -0.0000144700   -0.0000031200   -0.0000177700
   0.0000630200    0.0000187900    0.0000041300
   0.0000160100    0.0000845300    0.0000244200
   0.0083065300   -0.0058407800   -0.0070521600
   0.0000909200   -0.0000993900    0.0000506000
  -0.0000246500   -0.0000020100    0.0000082300
   0.0001046300    0.0000456200   -0.0000580500
   0.0005699600   -0.0005056600    0.0008642500
   0.0000513400   -0.0000242600   -0.0000053600
   0.0000940300   -0.0000460300    0.0000136900
   0.0000169900   -0.0000184400    0.0000398000
   0.0000250100   -0.0000456500    0.0000006700
   0.0000221000   -0.0000186200    0.0000264700
  -0.0000023900    0.0000025500    0.0000231600
  -0.0000485200   -0.0001218300   -0.0000648300
   0.0001719100    0.0000510400   -0.0001061300
  -0.0000816100   -0.0000483700   -0.0001357500
   0.0001291800   -0.0004114800   -0.0000040600
  -0.0001617800   -0.0000828100   -0.0001020300
   0.0011711800   -0.0097806100    0.0044976600
  -0.0003039900    0.0000217400   -0.0001752400
   0.0000848200   -0.0000110200    0.0000495000
  -0.0001135100   -0.0000736700   -0.0000067800
   0.0000250700   -0.0000199900    0.0000485300
  -0.0000979900   -0.0000497300   -0.0000729100
  -0.0001033600   -0.0001503900   -0.0002347600
   0.0005365700    0.0005523500    0.0002925800
  -0.0002018800    0.0001336400   -0.0000473200
   0.0000366000    0.0006011500   -0.0002296300
  -0.0001007800    0.0000205700    0.0000550800
   0.0000801700    0.0002936500   -0.0002955700
  -0.0001658200    0.0000839100   -0.0000232100
  -0.0001018600    0.0001904300    0.0002197200
  -0.0001089100    0.0000000700    0.0000811000
   0.0000135200    0.0000489900    0.0000586000
  -0.0000378000    0.0000718200   -0.0000083200
  -0.0000497000    0.0001231400    0.0000346700
  -0.0000985300    0.0000555400    0.0000232100
  -0.0007797000   -0.0003981700   -0.0003911100
  -0.0015461500    0.0022403800   -0.0020155600
  -0.0000528900   -0.0000135200   -0.0000513400
  -0.0000106400   -0.0000150200   -0.0000495200
  -0.0008604600   -0.0002987400    0.0003289300
  -0.0005315500    0.0004579200    0.0016376900
  -0.0000006400   -0.0000410600   -0.0000050200
  -0.0000027500    0.0002645400   -0.0002406500
  -0.0002137200   -0.0001020700   -0.0000163800
  -0.0001157900   -0.0001010500   -0.0000419800
  -0.0000023000   -0.0000505600   -0.0000337200
   0.0000498800   -0.0000650600   -0.0000006600
  -0.0000591600    0.0001685800   -0.0003238400
  -0.0004345900    0.0001890700    0.0000452100
  -0.0000154400    0.0000425900   -0.0000231000
  -0.0000601700    0.0000430100    0.0000716600
   0.0110434800   -0.0056434400    0.0007037600
   0.0001992800    0.0003343900    0.0000268600
   0.0000221400    0.0000794500    0.0001453600
   0.0000017700    0.0000607000    0.0000333200
  -0.0000066400    0.0001998600    0.0004401400
  -0.0004669600    0.0001310700    0.0000207200
  -0.0000304300    0.0000809900    0.0001314400
  -0.0000299100    0.0000428300    0.0000621600

1    
 -0.0099999999506871  -0.0000009931054020   0.0000000000000000
   0.0331411700   -0.0110449800   -0.0019012700
  -0.0002188600    0.0000065500   -0.0000261300
   0.0000105200    0.0000237900    0.0000258600
  -0.0000547600    0.0001297100   -0.0000542100
   0.0003526800    0.0003749900   -0.0001595000
  -0.0001743800    0.0000259500    0.0001070300
   0.0000152800    0.0000270100   -0.0000437100
  -0.0000432000    0.0000626800   -0.0000261800
   0.0003528300    0.0003976900    0.0001380800
  -0.0001743600    0.0000128400   -0.0001366100
   0.0000154500   -0.0000194300    0.0000094900
  -0.0000432400    0.0000696100   -0.0000478700
  -0.0024628300    0.0005279900   -0.0001476100
  -0.0047823200   -0.0059735500   -0.0002707200
  -0.0000026500   -0.0000900600   -0.0000713200
  -0.0002508700    0.0002792300    0.0001309600
  -0.0000700900   -0.0000666500    0.0000668600
  -0.0004815500   -0.0005534900   -0.0007004700
   0.0000050800   -0.0000789800   -0.0000449800
   0.0000312900   -0.0001076700   -0.0000328200
  -0.0000701500   -0.0000559100   -0.0001207200
  -0.0004824400   -0.0006164900    0.0007037700
   0.0000049600   -0.0000808000   -0.0000440900
   0.0000311700   -0.0000514100   -0.0000407600
   0.0001159100    0.0000348100    0.0000400500
  -0.0000431000   -0.0000053500    0.0000403500
   0.0001149300    0.0000009100   -0.0000127400
  -0.0000429800    0.0000522800    0.0000917600
   0.0001598000    0.0009055900    0.0003928700
  -0.0000987400   -0.0000012400    0.0000923200
   0.0001596000   -0.0000895400    0.0000908900
  -0.0000989800    0.0000720800    0.0000363000
   0.0000602000    0.0000522200    0.0001317700
  -0.0000364000   -0.0000121500    0.0000540700
   0.0000601300    0.0000300900    0.0000648000
  -0.0000361800    0.0000529100    0.0000280900
  -0.0000539400   -0.0000517900    0.0000585300
  -0.0000528100   -0.0000230400    0.0001020400
  -0.0000669700    0.0000143500    0.0000030300
  -0.0000669200   -0.0000284200    0.0000602100
  -0.0005547600   -0.0010225300    0.0003189700
  -0.0005539000   -0.0000783900   -0.0000453000
  -0.0000306300    0.0000443200    0.0000786900
  -0.0000303600   -0.0000418200    0.0000394400
  -0.0000674700   -0.0000355400    0.0000839400
  -0.0000674200   -0.0000244400    0.0000423000
  -0.0000732500    0.0000261600    0.0000915800
  -0.0000729900   -0.0000080000    0.0000809700
  -0.0004106700    0.0004128800   -0.0005280600
  -0.0004454600   -0.0000182600    0.0001103100
  -0.0000493700   -0.0000870600   -0.0000435900
  -0.0000392100    0.0000519700    0.0000020500
  -0.0004480200    0.0003375500    0.0008536900
  -0.0004087400   -0.0000785200   -0.0001831300
  -0.0000392200   -0.0000334000    0.0000084500
  -0.0000490800    0.0000560400   -0.0000264500
  -0.0001393700    0.0001113200    0.0000058400
  -0.0001383100    0.0000082000   -0.0000029500
  -0.0000270600    0.0000161000   -0.0000133400
  -0.0000268100   -0.0000034200   -0.0000103800
  -0.0024234000   -0.0003862900   -0.0079446000
  -0.0002350800   -0.0000531500    0.0000238600
   0.0000681800    0.0001443700   -0.0000627900
  -0.0000408200   -0.0000171200   -0.0000017200
  -0.0024237500   -0.0005970100    0.0079120900
  -0.0002349400   -0.0000090800   -0.0001084900
   0.0000677300    0.0000567500   -0.0000161000
  -0.0000407600    0.0000000700   -0.0000110600
   0.0001493600   -0.0000606300   -0.0000227600
  -0.0000723200    0.0000211500   -0.0000181200
   0.0000392900   -0.0000003100   -0.0000219700
  -0.0000275800   -0.0000101300   -0.0000063100
   0.0004632000   -0.0002021600   -0.0000227300
  -0.0001336700    0.0001444700   -0.0000752700
   0.0004633700    0.0001494800    0.0001398200
  -0.0001339300    0.0000251300   -0.0000023300
   0.0001195800   -0.0003497000   -0.0000294200
  -0.0000808100    0.0000796700    0.0000331200
   0.0001197200    0.0001052300   -0.0001203100
  -0.0000803400   -0.0000066900    0.0000379200
   0.0000393000   -0.0000089300    0.0000008000
  -0.0000383100    0.0000100900    0.0000336600
   0.0000390000    0.0000283500    0.0000550200
  -0.0000382500    0.0000062600    0.0000341300
  -0.0000391300   -0.0001080000    0.0000124900
  -0.0080942000    0.0056038400    0.0068276200
  -0.0001155700    0.0000742600   -0.0000123500
  -0.0000006000   -0.0000231500    0.0000297200
  -0.0001289500   -0.0000699900    0.0000959500
  -0.0005947200    0.0004806800   -0.0008223000
  -0.0000768500   -0.0000010900    0.0000432200
  -0.0001187500    0.0000202900    0.0000251400
  -0.0000420700   -0.0000064500   -0.0000015500
  -0.0000495100    0.0000201000    0.0000371400
  -0.0000472000   -0.0000066700    0.0000118000
  -0.0000227000   -0.0000278700    0.0000154800
   0.0000484100    0.0001223100   -0.0001196700
  -0.0001705400   -0.0000502500   -0.0000791600
   0.0000810400    0.0000489700   -0.0000496300
  -0.0001300400    0.0004141800   -0.0001827400
   0.0001636100    0.0000833000   -0.0000826100
  -0.0012197200    0.0096826600   -0.0046535900
   0.0003047600   -0.0000230500   -0.0000095300
  -0.0000833600    0.0000117900   -0.0002334300
   0.0001130900    0.0000734700   -0.0001771300
  -0.0000247100    0.0000190200   -0.0002302700
   0.0000986700    0.0000506700   -0.0001117700
   0.0001033200    0.0001498900    0.0000489300
  -0.0005426900   -0.0005691000   -0.0002840200
   0.0002084900   -0.0001377300    0.0000635400
  -0.0000381300   -0.0006029900    0.0002513200
   0.0001000900   -0.0000221500   -0.0000341800
  -0.0000829100   -0.0002998200    0.0003251300
   0.0001639700   -0.0000838300    0.0000424700
   0.0001028900   -0.0001925000   -0.0002000600
   0.0001095600    0.0000000200   -0.0000600800
  -0.0000134000   -0.0000498200   -0.0000377300
   0.0000375400   -0.0000729000    0.0000279500
   0.0000501600   -0.0001241200   -0.0000142800
   0.0000991700   -0.0000561400   -0.0000026300
   0.0007793600    0.0003974400    0.0003299100
   0.0015285700   -0.0022172400    0.0019336400
   0.0000535400    0.0000131700   -0.0000077700
   0.0000105500    0.0000154300   -0.0000098800
   0.0008615500    0.0002976800   -0.0003855100
   0.0005151500   -0.0004444600   -0.0016527800
   0.0000008600    0.0000409700   -0.0000539000
   0.0000011300   -0.0002620000    0.0001805100
   0.0002163800    0.0001032200   -0.0000427800
   0.0001145400    0.0001007600   -0.0000171100
   0.0000024700    0.0000512500   -0.0000251500
  -0.0000501300    0.0000649700   -0.0000585100
   0.0000610800   -0.0001716800    0.0004474600
   0.0004394000   -0.0001918000    0.0000718700
   0.0000160000   -0.0000438300    0.0001416100
   0.0000603300   -0.0000436300    0.0000472200
  -0.0117066800    0.0059906600   -0.0005892300
  -0.0001851900   -0.0003328400    0.0000926500
  -0.0000198900   -0.0000801400   -0.0000251700
  -0.0000011600   -0.0000609700    0.0000865200
   0.0000087300   -0.0002027400   -0.0003261200
   0.0004691200   -0.0001318700    0.0001010200
   0.0000304800   -0.0000827600   -0.0000118400
   0.0000298600   -0.0000426900    0.0000572100

1    
 -0.0000010909927432   0.0099999999404867   0.0000000000000000
   0.0105949600   -0.0255733000    0.0037563800
   0.0000456800    0.0000434100   -0.0000384200
   0.0000282300    0.0002813900   -0.0000108500
  -0.0000790800    0.0001155700   -0.0000372700
  -0.0003489300   -0.0002019300    0.0002021700
   0.0000383300    0.0000485900   -0.0000392700
   0.0000707200    0.0001760500   -0.0002519400
  -0.0000190500    0.0001010300   -0.0000458400
  -0.0003262000   -0.0002017500   -0.0002376100
   0.0000251700    0.0000486200   -0.0000583400
   0.0000242100    0.0001755800   -0.0000040300
  -0.0000119900    0.0001011400   -0.0000297600
  -0.0005775800    0.0002646800   -0.0000109600
   0.0061732100    0.0059941300    0.0001799300
   0.0000388300   -0.0000521400   -0.0000179100
  -0.0003296500    0.0017426400    0.0008456100
   0.0000051900   -0.0000323700   -0.0000141900
   0.0005652100    0.0004132300    0.0008253700
   0.0000300800   -0.0000676200   -0.0000363400
   0.0000001700   -0.0001052500   -0.0001111300
   0.0000158400   -0.0000323300   -0.0000201300
   0.0005027300    0.0004120100   -0.0006954800
   0.0000281500   -0.0000675500   -0.0000308800
   0.0000568900   -0.0001047200   -0.0000289500
  -0.0000008500    0.0000244600    0.0000509500
   0.0000498800    0.0000567000    0.0000557500
   0.0000314500    0.0000238900    0.0001334200
  -0.0000077700    0.0000566500    0.0001452200
  -0.0000918100    0.0005709600    0.0002419700
   0.0000694100    0.0000353500    0.0000582100
   0.0008996000    0.0005738500   -0.0001252000
  -0.0000036300    0.0000352300    0.0000403000
   0.0000270700    0.0000249300    0.0000671600
   0.0000503600    0.0000469300    0.0000529800
   0.0000492700    0.0000249700   -0.0000015900
  -0.0000144700    0.0000469300   -0.0000168400
  -0.0000205500   -0.0000576200    0.0000980300
  -0.0000481800   -0.0000572000    0.0001780200
  -0.0000256700    0.0000140500    0.0000071000
   0.0000172800    0.0000141300    0.0000746800
  -0.0000761500   -0.0003193900    0.0000120500
  -0.0010142500   -0.0003194200   -0.0001558200
  -0.0000393800    0.0000831500    0.0000585100
   0.0000465500    0.0000828200    0.0000568700
  -0.0000213100   -0.0000761500    0.0000549900
  -0.0000323900   -0.0000762800   -0.0000418400
  -0.0000051800    0.0000233300    0.0000626100
   0.0000285300    0.0000229700    0.0000415300
  -0.0000801300    0.0000586800   -0.0001312100
   0.0003355100    0.0001043400   -0.0001570600
   0.0000546400    0.0001009100    0.0000409800
  -0.0000345000   -0.0000125100    0.0000123100
  -0.0000194400    0.0001045400    0.0000362100
   0.0004105700    0.0000575900    0.0000430000
   0.0000507900   -0.0000122100   -0.0000801300
  -0.0000889000    0.0001016600   -0.0001138000
   0.0000073600    0.0000016400    0.0000035000
   0.0001098100    0.0000019400    0.0000125700
  -0.0000045400   -0.0000372200   -0.0000279800
   0.0000149300   -0.0000373300   -0.0000450800
  -0.0005854000   -0.0012894500   -0.0007081100
  -0.0000078600   -0.0001526800   -0.0000007200
   0.0000577600    0.0000652100   -0.0000079800
   0.0000009500    0.0000359700    0.0000102100
  -0.0003778800   -0.0012867800    0.0006597100
  -0.0000516800   -0.0001527200   -0.0000271000
   0.0001458500    0.0000653900   -0.0000034300
  -0.0000162300    0.0000357500   -0.0000454400
  -0.0000591800   -0.0000350800   -0.0000020600
   0.0000223500   -0.0000434400   -0.0000162200
   0.0000010900    0.0000133900   -0.0000161000
  -0.0000090400    0.0000246700   -0.0000181800
  -0.0001279500    0.0006552400    0.0001604600
  -0.0000000700    0.0000413800    0.0000077800
   0.0002282300    0.0006560100    0.0008544600
  -0.0001194100    0.0000414300    0.0000017700
  -0.0000777500    0.0003321500    0.0001972100
   0.0000318400    0.0000421500    0.0000279100
   0.0003771900    0.0003319400   -0.0006362100
  -0.0000545300    0.0000430000    0.0000038900
  -0.0000031400    0.0000439000    0.0000104600
   0.0000187500    0.0000172900    0.0000276500
   0.0000340800    0.0000435500    0.0000337600
   0.0000148400    0.0000176800    0.0000251900
   0.0000840600   -0.0000299900   -0.0000100300
  -0.0056765800    0.0013338100    0.0058662900
  -0.0000995700    0.0000288700    0.0000239000
  -0.0000018000    0.0001142900   -0.0000081800
   0.0000455300   -0.0000377600   -0.0000292900
  -0.0005058500   -0.0003028300   -0.0008533800
  -0.0000241900    0.0000127900    0.0000177200
  -0.0000458600    0.0003126800   -0.0000061100
  -0.0000184200   -0.0000503500    0.0000320600
  -0.0000452900   -0.0000457200    0.0000528700
  -0.0000183800    0.0000119600    0.0000188600
   0.0000033000    0.0000751500    0.0000665600
   0.0000464700    0.0000227100   -0.0001417500
  -0.0000843700    0.0001332100    0.0001283000
   0.0000290300   -0.0000362200   -0.0000855600
   0.0000263100   -0.0003585100   -0.0000778200
  -0.0000756600   -0.0000177000   -0.0000697000
  -0.0057046000    0.0142880700   -0.0087250100
   0.0000126800    0.0000055700   -0.0000881000
   0.0001623200    0.0002656600    0.0000658500
   0.0000534000    0.0000073600   -0.0000249900
   0.0000161500    0.0000186800   -0.0000886800
  -0.0000138100   -0.0000765500   -0.0001035700
  -0.0000720400   -0.0004116400   -0.0002625800
   0.0004136300    0.0003331200    0.0003639700
   0.0004566700   -0.0000365300   -0.0001604200
   0.0001436100   -0.0001838500    0.0000360800
  -0.0000779600   -0.0000318200    0.0000053600
   0.0000252900    0.0003507600   -0.0002520200
   0.0003140200   -0.0000074100    0.0002132200
  -0.0000785200   -0.0000203600    0.0000398200
  -0.0001866300   -0.0000771500    0.0000286300
   0.0000548900    0.0000605600    0.0000041200
  -0.0000026700    0.0000690600    0.0000151100
  -0.0000341300    0.0000037800   -0.0000171700
  -0.0000641800   -0.0000177600    0.0000226800
   0.0001210500    0.0000395500    0.0000767400
   0.0021333800   -0.0000939000   -0.0038464500
   0.0000769200   -0.0000298500   -0.0000656500
  -0.0000048200   -0.0002136500   -0.0001308200
   0.0001675000    0.0000582600   -0.0001588000
   0.0011033700   -0.0001546600    0.0014319600
   0.0000254100   -0.0000103000   -0.0000055100
  -0.0002273300   -0.0009146300    0.0005993400
  -0.0000126400    0.0000033000   -0.0000415700
   0.0000249700   -0.0000920400   -0.0000873100
  -0.0000263700   -0.0000242800   -0.0000285400
  -0.0000411300   -0.0000922000   -0.0001070800
   0.0000231200    0.0000184500    0.0000297400
  -0.0002655300    0.0001005100    0.0001432000
   0.0000006200   -0.0000490400    0.0000729300
   0.0000175700   -0.0000107800    0.0000396500
  -0.0084747600    0.0014274400    0.0001899000
  -0.0000835400    0.0001467500    0.0001812800
  -0.0000783800   -0.0001251700    0.0000826100
   0.0000895500   -0.0001691900    0.0000016800
   0.0000766300    0.0000616800    0.0000846500
  -0.0002706000    0.0000878700   -0.0000269200
  -0.0000623800    0.0000189600    0.0000839900
   0.0000127700   -0.0000013500    0.0001124600

1    
  0.0000010909927432  -0.0099999999404867   0.0000000000000000
  -0.0113482600    0.0263190300   -0.0040443000
  -0.0000821100    0.0000961600   -0.0000309800
  -0.0000640700   -0.0001426900   -0.0000568600
   0.0000410100    0.0000237300   -0.0000317900
   0.0003084200    0.0003399400   -0.0002710700
  -0.0000757000    0.0000906000   -0.0000297600
  -0.0001070000   -0.0000364900    0.0001813900
  -0.0000189300    0.0000382500   -0.0000231500
   0.0002861200    0.0003400500    0.0001682800
  -0.0000625600    0.0000906800   -0.0000104500
  -0.0000609700   -0.0000370600   -0.0000652600
  -0.0000257200    0.0000382500   -0.0000391700
   0.0006193300   -0.0004033800   -0.0000582200
  -0.0058669800   -0.0059178800   -0.0002452300
  -0.0000015100   -0.0000878600   -0.0000507100
   0.0003671400   -0.0018774500   -0.0009108600
   0.0000331300   -0.0001070200   -0.0000545200
  -0.0005277500   -0.0005511500   -0.0008966700
   0.0000077600   -0.0000715600   -0.0000326200
   0.0000373500   -0.0000349100    0.0000412200
   0.0000221600   -0.0001070600   -0.0000490900
  -0.0004644400   -0.0005522700    0.0006269200
   0.0000094700   -0.0000714700   -0.0000379000
  -0.0000190600   -0.0000343500   -0.0000404300
   0.0000419400    0.0000216500    0.0000546700
  -0.0000095300   -0.0000112100    0.0000502200
   0.0000088800    0.0000212100   -0.0000276200
   0.0000484400   -0.0000112700   -0.0000395100
   0.0001372100   -0.0005284400   -0.0001357700
  -0.0000293100    0.0000099900    0.0000478900
  -0.0008618400   -0.0005256700    0.0002346000
   0.0000431100    0.0000098600    0.0000655500
   0.0000130600    0.0000204000    0.0000391700
  -0.0000103600   -0.0000015800    0.0000526300
  -0.0000094600    0.0000205900    0.0001076300
   0.0000551000   -0.0000015600    0.0001230800
  -0.0000200400    0.0000111100    0.0000083400
   0.0000088200    0.0000115000   -0.0000726300
  -0.0000146100   -0.0000599700    0.0000981600
  -0.0000568900   -0.0000597800    0.0000313200
   0.0000394300    0.0002748000    0.0000956400
   0.0009757600    0.0002749200    0.0002618400
  -0.0000011500   -0.0001280500    0.0000478600
  -0.0000878400   -0.0001284700    0.0000492300
  -0.0000179200    0.0000307900    0.0000503700
  -0.0000073300    0.0000307300    0.0001477100
  -0.0000351000   -0.0000684700    0.0000441900
  -0.0000687700   -0.0000689100    0.0000644300
   0.0000722500   -0.0000631500    0.0001073400
  -0.0003401800   -0.0001104900    0.0001295900
  -0.0000638700   -0.0001087300   -0.0000664600
   0.0000262600    0.0000069400   -0.0000353200
   0.0000116500   -0.0001102000   -0.0000591000
  -0.0004151000   -0.0000644000   -0.0000626800
  -0.0000588000    0.0000073100    0.0000568000
   0.0000801000   -0.0001078300    0.0000898500
  -0.0000150300   -0.0000080900   -0.0000275200
  -0.0001178500   -0.0000078400   -0.0000361400
  -0.0000037100    0.0000312500    0.0000042000
  -0.0000231500    0.0000311500    0.0000213300
   0.0006191300    0.0012956500    0.0007266200
   0.0000169500    0.0001591300   -0.0000230300
  -0.0000493100   -0.0000589100   -0.0000157600
   0.0000070900   -0.0000295100   -0.0000337500
   0.0004084600    0.0012988400   -0.0007165600
   0.0000613500    0.0001590500    0.0000041100
  -0.0001361400   -0.0000587200   -0.0000192200
   0.0000241500   -0.0000297500    0.0000219000
   0.0000675100    0.0000414300   -0.0000218600
  -0.0000137900    0.0000497100   -0.0000073300
   0.0000078100   -0.0000076000   -0.0000078400
   0.0000172600   -0.0000186000   -0.0000054900
   0.0001492900   -0.0006318200   -0.0001211800
   0.0000250300   -0.0000165500    0.0000307900
  -0.0002023100   -0.0006307500   -0.0008262000
   0.0001452100   -0.0000163900    0.0000366100
   0.0001076300   -0.0003093200   -0.0001545600
  -0.0000069300   -0.0000178300    0.0000120800
  -0.0003501700   -0.0003095300    0.0006788700
   0.0000798700   -0.0000169200    0.0000361600
   0.0000283300   -0.0000187700    0.0000272000
   0.0000061000    0.0000074900    0.0000105100
  -0.0000088800   -0.0000189600    0.0000052600
   0.0000102700    0.0000077600    0.0000131500
  -0.0001084500    0.0000048800    0.0000476400
   0.0057680200   -0.0013619800   -0.0059365700
   0.0000741100   -0.0000542000    0.0000148200
  -0.0000230000   -0.0001397700    0.0000476100
  -0.0000700900    0.0000131700    0.0000675100
   0.0004805600    0.0002781600    0.0008901000
  -0.0000011000   -0.0000380300    0.0000203200
   0.0000204800   -0.0003355400    0.0000437600
  -0.0000064400    0.0000251500    0.0000061000
   0.0000205800    0.0000209300   -0.0000143400
  -0.0000062700   -0.0000369600    0.0000193700
  -0.0000271400   -0.0001001400   -0.0000296700
  -0.0000484200   -0.0000239000   -0.0000436400
   0.0000851500   -0.0001355200   -0.0003206500
  -0.0000288900    0.0000357000   -0.0000994100
  -0.0000295600    0.0003607500   -0.0001039300
   0.0000776600    0.0000178500   -0.0001156600
   0.0060981700   -0.0150623100    0.0088678800
  -0.0000120000   -0.0000060800   -0.0000975900
  -0.0001595500   -0.0002457100   -0.0002469900
  -0.0000546700   -0.0000081100   -0.0001590200
  -0.0000152000   -0.0000170100   -0.0000983300
   0.0000138000    0.0000761900   -0.0000814200
   0.0000716100    0.0004127400    0.0000811600
  -0.0004288500   -0.0003293500   -0.0003577000
  -0.0004627500    0.0000376200    0.0001819300
  -0.0001438700    0.0001849000   -0.0000158400
   0.0000759100    0.0000305100    0.0000151000
  -0.0000300900   -0.0003522700    0.0002752400
  -0.0003171200    0.0000084100   -0.0001936200
   0.0000799100    0.0000160600   -0.0000225200
   0.0001869500    0.0000778800   -0.0000071100
  -0.0000554100   -0.0000608500    0.0000164800
   0.0000015500   -0.0000691100    0.0000056800
   0.0000338600   -0.0000031900    0.0000385000
   0.0000638900    0.0000180300   -0.0000009900
  -0.0001227800   -0.0000419900   -0.0001362100
  -0.0021012500    0.0000527400    0.0037282700
  -0.0000768700    0.0000288900    0.0000064600
   0.0000032800    0.0002157500    0.0000729300
  -0.0001688000   -0.0000604400    0.0001003900
  -0.0010918700    0.0001612200   -0.0014387400
  -0.0000249300    0.0000096100   -0.0000533800
   0.0002250000    0.0009081800   -0.0006516300
   0.0000116400   -0.0000039400   -0.0000172700
  -0.0000258900    0.0000911200    0.0000285500
   0.0000265300    0.0000237800   -0.0000296500
   0.0000400800    0.0000930200    0.0000488000
  -0.0000259600   -0.0000162400    0.0000867200
   0.0002638100   -0.0001001800   -0.0000247800
  -0.0000005400    0.0000491400    0.0000476200
  -0.0000185100    0.0000110300    0.0000794800
   0.0083401000   -0.0014595000   -0.0000699500
   0.0000827900   -0.0001442700   -0.0000623100
   0.0000779700    0.0001265500    0.0000350200
  -0.0000891900    0.0001686600    0.0001168300
  -0.0000794400   -0.0000601200    0.0000385500
   0.0002682600   -0.0000877600    0.0001467600
   0.0000609500   -0.0000193000    0.0000359300
  -0.0000126300    0.0000018300    0.0000072900

1    
  0.0000000000000000   0.0000000000000000   0.0100000000000000
   0.0020179600    0.0039119200   -0.0373032100
  -0.0000267500    0.0000653200   -0.0000115100
  -0.0000785000    0.0000923100   -0.0000482700
   0.0000015500    0.0000660500   -0.0000518400
  -0.0001897200   -0.0001341800    0.0006557400
   0.0000843300    0.0000447500    0.0000151400
  -0.0000614700    0.0000995000    0.0000238300
  -0.0000046800    0.0000736100   -0.0000400400
   0.0001087800    0.0003059500    0.0006481100
  -0.0001594600    0.0000641200    0.0000160300
  -0.0000083600   -0.0001474200    0.0000243900
  -0.0000261900    0.0000574600   -0.0000399800
  -0.0000901600   -0.0000938800   -0.0000256100
  -0.0002282100   -0.0002921100   -0.0023930100
  -0.0000187800   -0.0000850600   -0.0000682800
   0.0001826900   -0.0009461500   -0.0003351000
  -0.0000688500   -0.0000830200   -0.0000042300
   0.0007555000    0.0005946100    0.0013283500
   0.0000082800   -0.0000721600   -0.0000348900
   0.0000112800   -0.0000746800   -0.0000127100
   0.0001184100   -0.0000885500   -0.0000033100
  -0.0006468600   -0.0009292800    0.0013205400
   0.0000073300   -0.0000666800   -0.0000348500
   0.0000194200    0.0000076600   -0.0000127100
   0.0000851200   -0.0000580800    0.0000320100
  -0.0000191600   -0.0000703800    0.0000717400
   0.0000319900    0.0000238900    0.0000321400
   0.0000318600    0.0000189800    0.0000717800
  -0.0000198400    0.0002025000   -0.0001660900
   0.0000363000    0.0000343600    0.0000312500
  -0.0003195000   -0.0001663600   -0.0001647700
  -0.0000201500    0.0000167000    0.0000318100
   0.0000072200    0.0000766500    0.0000857600
   0.0000445000    0.0000918900    0.0000741500
  -0.0000601800    0.0000073600    0.0000859300
   0.0000181500    0.0000217700    0.0000740800
   0.0000300100    0.0001030900    0.0000490400
  -0.0000132600    0.0000226100    0.0000486000
  -0.0000121600   -0.0000003500    0.0000667000
  -0.0000695000   -0.0000671800    0.0000665300
  -0.0001161700   -0.0002288600   -0.0001013100