phonopy:
  version: 2.9.3
  frequency_unit_conversion_factor: 15.633302
  symmetry_tolerance: 1.00000e-05
  nac_unit_conversion_factor: 14.399652

physical_unit:
  atomic_mass: "AMU"

space_group:
  type: "P2"
  number: 3
  Hall_symbol: "P 2y"

primitive_matrix:
- [  1.000000000000000,  0.000000000000000,  0.000000000000000 ]
- [  0.000000000000000,  1.000000000000000,  0.000000000000000 ]
- [  0.000000000000000,  0.000000000000000,  1.000000000000000 ]

supercell_matrix:
- [   2,   0,   0 ]
- [   0,   2,   0 ]
- [   0,   0,   3 ]

primitive_cell:
  lattice:
  - [     7.005197990000000,     0.000695690000000,     0.000000000000000 ] # a
  - [    -0.000750980000000,     6.883455460000000,     0.000000000000000 ] # b
  - [     0.000000000000000,     0.000000000000000,     4.850064619999999 ] # c
  points:
  - symbol: Ag # 1
    coordinates: [  0.859757960000001,  0.343341540000000,  0.997432039999995 ]
    mass: 107.868200
  - symbol: Ag # 2
    coordinates: [  0.140242040000000,  0.656658460000000,  0.997432039999995 ]
    mass: 107.868200
  - symbol: Ag # 3
    coordinates: [  0.640241050000000,  0.843347340000007,  0.169232240000000 ]
    mass: 107.868200
  - symbol: Ag # 4
    coordinates: [  0.359758949999999,  0.156652659999993,  0.169232240000000 ]
    mass: 107.868200
  - symbol: Ag # 5
    coordinates: [  0.359755520000004,  0.656647379999999,  0.497425670000001 ]
    mass: 107.868200
  - symbol: Ag # 6
    coordinates: [  0.640244479999996,  0.343352620000000,  0.497425670000001 ]
    mass: 107.868200
  - symbol: Ag # 7
    coordinates: [  0.859753119999995,  0.843349890000007,  0.669239990000009 ]
    mass: 107.868200
  - symbol: Ag # 8
    coordinates: [  0.140246879999999,  0.156650109999993,  0.669239990000009 ]
    mass: 107.868200
  - symbol: Se # 9
    coordinates: [  0.000000000000000,  0.000000000000000,  0.164380950000000 ]
    mass: 78.960000
  - symbol: Se # 10
    coordinates: [  0.500000000000000,  0.000000000000000,  0.664356180000010 ]
    mass: 78.960000
  - symbol: Se # 11
    coordinates: [  0.000000000000000,  0.500000000000000,  0.502313059999992 ]
    mass: 78.960000
  - symbol: Se # 12
    coordinates: [  0.500000000000000,  0.500000000000000,  0.002289960000000 ]
    mass: 78.960000
  reciprocal_lattice: # without 2pi
  - [     0.142751138596340,     0.000015574045723,     0.000000000000000 ] # a*
  - [    -0.000014427425323,     0.145275871250468,     0.000000000000000 ] # b*
  - [     0.000000000000000,     0.000000000000000,     0.206182819889934 ] # c*

unit_cell:
  lattice:
  - [     7.005197990000000,     0.000695690000000,     0.000000000000000 ] # a
  - [    -0.000750980000000,     6.883455460000000,     0.000000000000000 ] # b
  - [     0.000000000000000,     0.000000000000000,     4.850064620000000 ] # c
  points:
  - symbol: Ag # 1
    coordinates: [  0.859757960000001,  0.343341540000000,  0.997432039999995 ]
    mass: 107.868200
    reduced_to: 1
  - symbol: Ag # 2
    coordinates: [  0.140242040000000,  0.656658460000000,  0.997432039999995 ]
    mass: 107.868200
    reduced_to: 2
  - symbol: Ag # 3
    coordinates: [  0.640241050000000,  0.843347340000007,  0.169232240000000 ]
    mass: 107.868200
    reduced_to: 3
  - symbol: Ag # 4
    coordinates: [  0.359758949999999,  0.156652659999993,  0.169232240000000 ]
    mass: 107.868200
    reduced_to: 4
  - symbol: Ag # 5
    coordinates: [  0.359755520000004,  0.656647379999999,  0.497425670000001 ]
    mass: 107.868200
    reduced_to: 5
  - symbol: Ag # 6
    coordinates: [  0.640244479999996,  0.343352620000000,  0.497425670000001 ]
    mass: 107.868200
    reduced_to: 6
  - symbol: Ag # 7
    coordinates: [  0.859753119999995,  0.843349890000007,  0.669239990000009 ]
    mass: 107.868200
    reduced_to: 7
  - symbol: Ag # 8
    coordinates: [  0.140246879999999,  0.156650109999993,  0.669239990000009 ]
    mass: 107.868200
    reduced_to: 8
  - symbol: Se # 9
    coordinates: [  0.000000000000000,  0.000000000000000,  0.164380950000000 ]
    mass: 78.960000
    reduced_to: 9
  - symbol: Se # 10
    coordinates: [  0.500000000000000, -0.000000000000000,  0.664356180000010 ]
    mass: 78.960000
    reduced_to: 10
  - symbol: Se # 11
    coordinates: [  0.000000000000000,  0.500000000000000,  0.502313059999992 ]
    mass: 78.960000
    reduced_to: 11
  - symbol: Se # 12
    coordinates: [  0.500000000000000,  0.500000000000000,  0.002289960000000 ]
    mass: 78.960000
    reduced_to: 12

supercell:
  lattice:
  - [    14.010395980000000,     0.001391380000000,     0.000000000000000 ] # a
  - [    -0.001501960000000,    13.766910920000001,     0.000000000000000 ] # b
  - [     0.000000000000000,     0.000000000000000,    14.550193860000000 ] # c
  points:
  - symbol: Ag # 1
    coordinates: [  0.429878980000001,  0.171670770000000,  0.332477346666665 ]
    mass: 107.868200
    reduced_to: 1
  - symbol: Ag # 2
    coordinates: [  0.929878980000000,  0.171670770000000,  0.332477346666665 ]
    mass: 107.868200
    reduced_to: 1
  - symbol: Ag # 3
    coordinates: [  0.429878980000001,  0.671670770000000,  0.332477346666665 ]
    mass: 107.868200
    reduced_to: 1
  - symbol: Ag # 4
    coordinates: [  0.929878980000000,  0.671670770000000,  0.332477346666665 ]
    mass: 107.868200
    reduced_to: 1
  - symbol: Ag # 5
    coordinates: [  0.429878980000001,  0.171670770000000,  0.665810679999998 ]
    mass: 107.868200
    reduced_to: 1
  - symbol: Ag # 6
    coordinates: [  0.929878980000000,  0.171670770000000,  0.665810679999998 ]
    mass: 107.868200
    reduced_to: 1
  - symbol: Ag # 7
    coordinates: [  0.429878980000001,  0.671670770000000,  0.665810679999998 ]
    mass: 107.868200
    reduced_to: 1
  - symbol: Ag # 8
    coordinates: [  0.929878980000000,  0.671670770000000,  0.665810679999998 ]
    mass: 107.868200
    reduced_to: 1
  - symbol: Ag # 9
    coordinates: [  0.429878980000001,  0.171670770000000,  0.999144013333332 ]
    mass: 107.868200
    reduced_to: 1
  - symbol: Ag # 10
    coordinates: [  0.929878980000000,  0.171670770000000,  0.999144013333332 ]
    mass: 107.868200
    reduced_to: 1
  - symbol: Ag # 11
    coordinates: [  0.429878980000001,  0.671670770000000,  0.999144013333332 ]
    mass: 107.868200
    reduced_to: 1
  - symbol: Ag # 12
    coordinates: [  0.929878980000000,  0.671670770000000,  0.999144013333332 ]
    mass: 107.868200
    reduced_to: 1
  - symbol: Ag # 13
    coordinates: [  0.070121020000000,  0.328329230000000,  0.332477346666665 ]
    mass: 107.868200
    reduced_to: 13
  - symbol: Ag # 14
    coordinates: [  0.570121020000000,  0.328329230000000,  0.332477346666665 ]
    mass: 107.868200
    reduced_to: 13
  - symbol: Ag # 15
    coordinates: [  0.070121020000000,  0.828329230000000,  0.332477346666665 ]
    mass: 107.868200
    reduced_to: 13
  - symbol: Ag # 16
    coordinates: [  0.570121020000000,  0.828329230000000,  0.332477346666665 ]
    mass: 107.868200
    reduced_to: 13
  - symbol: Ag # 17
    coordinates: [  0.070121020000000,  0.328329230000000,  0.665810679999998 ]
    mass: 107.868200
    reduced_to: 13
  - symbol: Ag # 18
    coordinates: [  0.570121020000000,  0.328329230000000,  0.665810679999998 ]
    mass: 107.868200
    reduced_to: 13
  - symbol: Ag # 19
    coordinates: [  0.070121020000000,  0.828329230000000,  0.665810679999998 ]
    mass: 107.868200
    reduced_to: 13
  - symbol: Ag # 20
    coordinates: [  0.570121020000000,  0.828329230000000,  0.665810679999998 ]
    mass: 107.868200
    reduced_to: 13
  - symbol: Ag # 21
    coordinates: [  0.070121020000000,  0.328329230000000,  0.999144013333332 ]
    mass: 107.868200
    reduced_to: 13
  - symbol: Ag # 22
    coordinates: [  0.570121020000000,  0.328329230000000,  0.999144013333332 ]
    mass: 107.868200
    reduced_to: 13
  - symbol: Ag # 23
    coordinates: [  0.070121020000000,  0.828329230000000,  0.999144013333332 ]
    mass: 107.868200
    reduced_to: 13
  - symbol: Ag # 24
    coordinates: [  0.570121020000000,  0.828329230000000,  0.999144013333332 ]
    mass: 107.868200
    reduced_to: 13
  - symbol: Ag # 25
    coordinates: [  0.320120525000000,  0.421673670000003,  0.056410746666667 ]
    mass: 107.868200
    reduced_to: 25
  - symbol: Ag # 26
    coordinates: [  0.820120525000000,  0.421673670000003,  0.056410746666667 ]
    mass: 107.868200
    reduced_to: 25
  - symbol: Ag # 27
    coordinates: [  0.320120525000000,  0.921673670000003,  0.056410746666667 ]
    mass: 107.868200
    reduced_to: 25
  - symbol: Ag # 28
    coordinates: [  0.820120525000000,  0.921673670000003,  0.056410746666667 ]
    mass: 107.868200
    reduced_to: 25
  - symbol: Ag # 29
    coordinates: [  0.320120525000000,  0.421673670000003,  0.389744080000000 ]
    mass: 107.868200
    reduced_to: 25
  - symbol: Ag # 30
    coordinates: [  0.820120525000000,  0.421673670000003,  0.389744080000000 ]
    mass: 107.868200
    reduced_to: 25
  - symbol: Ag # 31
    coordinates: [  0.320120525000000,  0.921673670000003,  0.389744080000000 ]
    mass: 107.868200
    reduced_to: 25
  - symbol: Ag # 32
    coordinates: [  0.820120525000000,  0.921673670000003,  0.389744080000000 ]
    mass: 107.868200
    reduced_to: 25
  - symbol: Ag # 33
    coordinates: [  0.320120525000000,  0.421673670000003,  0.723077413333333 ]
    mass: 107.868200
    reduced_to: 25
  - symbol: Ag # 34
    coordinates: [  0.820120525000000,  0.421673670000003,  0.723077413333333 ]
    mass: 107.868200
    reduced_to: 25
  - symbol: Ag # 35
    coordinates: [  0.320120525000000,  0.921673670000003,  0.723077413333333 ]
    mass: 107.868200
    reduced_to: 25
  - symbol: Ag # 36
    coordinates: [  0.820120525000000,  0.921673670000003,  0.723077413333333 ]
    mass: 107.868200
    reduced_to: 25
  - symbol: Ag # 37
    coordinates: [  0.179879475000000,  0.078326329999996,  0.056410746666667 ]
    mass: 107.868200
    reduced_to: 37
  - symbol: Ag # 38
    coordinates: [  0.679879475000000,  0.078326329999996,  0.056410746666667 ]
    mass: 107.868200
    reduced_to: 37
  - symbol: Ag # 39
    coordinates: [  0.179879475000000,  0.578326329999996,  0.056410746666667 ]
    mass: 107.868200
    reduced_to: 37
  - symbol: Ag # 40
    coordinates: [  0.679879475000000,  0.578326329999996,  0.056410746666667 ]
    mass: 107.868200
    reduced_to: 37
  - symbol: Ag # 41
    coordinates: [  0.179879475000000,  0.078326329999996,  0.389744080000000 ]
    mass: 107.868200
    reduced_to: 37
  - symbol: Ag # 42
    coordinates: [  0.679879475000000,  0.078326329999996,  0.389744080000000 ]
    mass: 107.868200
    reduced_to: 37
  - symbol: Ag # 43
    coordinates: [  0.179879475000000,  0.578326329999996,  0.389744080000000 ]
    mass: 107.868200
    reduced_to: 37
  - symbol: Ag # 44
    coordinates: [  0.679879475000000,  0.578326329999996,  0.389744080000000 ]
    mass: 107.868200
    reduced_to: 37
  - symbol: Ag # 45
    coordinates: [  0.179879475000000,  0.078326329999996,  0.723077413333333 ]
    mass: 107.868200
    reduced_to: 37
  - symbol: Ag # 46
    coordinates: [  0.679879475000000,  0.078326329999996,  0.723077413333333 ]
    mass: 107.868200
    reduced_to: 37
  - symbol: Ag # 47
    coordinates: [  0.179879475000000,  0.578326329999996,  0.723077413333333 ]
    mass: 107.868200
    reduced_to: 37
  - symbol: Ag # 48
    coordinates: [  0.679879475000000,  0.578326329999996,  0.723077413333333 ]
    mass: 107.868200
    reduced_to: 37
  - symbol: Ag # 49
    coordinates: [  0.179877760000002,  0.328323690000000,  0.165808556666667 ]
    mass: 107.868200
    reduced_to: 49
  - symbol: Ag # 50
    coordinates: [  0.679877760000002,  0.328323690000000,  0.165808556666667 ]
    mass: 107.868200
    reduced_to: 49
  - symbol: Ag # 51
    coordinates: [  0.179877760000002,  0.828323690000000,  0.165808556666667 ]
    mass: 107.868200
    reduced_to: 49
  - symbol: Ag # 52
    coordinates: [  0.679877760000002,  0.828323690000000,  0.165808556666667 ]
    mass: 107.868200
    reduced_to: 49
  - symbol: Ag # 53
    coordinates: [  0.179877760000002,  0.328323690000000,  0.499141890000000 ]
    mass: 107.868200
    reduced_to: 49
  - symbol: Ag # 54
    coordinates: [  0.679877760000002,  0.328323690000000,  0.499141890000000 ]
    mass: 107.868200
    reduced_to: 49
  - symbol: Ag # 55
    coordinates: [  0.179877760000002,  0.828323690000000,  0.499141890000000 ]
    mass: 107.868200
    reduced_to: 49
  - symbol: Ag # 56
    coordinates: [  0.679877760000002,  0.828323690000000,  0.499141890000000 ]
    mass: 107.868200
    reduced_to: 49
  - symbol: Ag # 57
    coordinates: [  0.179877760000002,  0.328323690000000,  0.832475223333334 ]
    mass: 107.868200
    reduced_to: 49
  - symbol: Ag # 58
    coordinates: [  0.679877760000002,  0.328323690000000,  0.832475223333334 ]
    mass: 107.868200
    reduced_to: 49
  - symbol: Ag # 59
    coordinates: [  0.179877760000002,  0.828323690000000,  0.832475223333334 ]
    mass: 107.868200
    reduced_to: 49
  - symbol: Ag # 60
    coordinates: [  0.679877760000002,  0.828323690000000,  0.832475223333334 ]
    mass: 107.868200
    reduced_to: 49
  - symbol: Ag # 61
    coordinates: [  0.320122239999998,  0.171676310000000,  0.165808556666667 ]
    mass: 107.868200
    reduced_to: 61
  - symbol: Ag # 62
    coordinates: [  0.820122239999998,  0.171676310000000,  0.165808556666667 ]
    mass: 107.868200
    reduced_to: 61
  - symbol: Ag # 63
    coordinates: [  0.320122239999998,  0.671676310000000,  0.165808556666667 ]
    mass: 107.868200
    reduced_to: 61
  - symbol: Ag # 64
    coordinates: [  0.820122239999998,  0.671676310000000,  0.165808556666667 ]
    mass: 107.868200
    reduced_to: 61
  - symbol: Ag # 65
    coordinates: [  0.320122239999998,  0.171676310000000,  0.499141890000000 ]
    mass: 107.868200
    reduced_to: 61
  - symbol: Ag # 66
    coordinates: [  0.820122239999998,  0.171676310000000,  0.499141890000000 ]
    mass: 107.868200
    reduced_to: 61
  - symbol: Ag # 67
    coordinates: [  0.320122239999998,  0.671676310000000,  0.499141890000000 ]
    mass: 107.868200
    reduced_to: 61
  - symbol: Ag # 68
    coordinates: [  0.820122239999998,  0.671676310000000,  0.499141890000000 ]
    mass: 107.868200
    reduced_to: 61
  - symbol: Ag # 69
    coordinates: [  0.320122239999998,  0.171676310000000,  0.832475223333334 ]
    mass: 107.868200
    reduced_to: 61
  - symbol: Ag # 70
    coordinates: [  0.820122239999998,  0.171676310000000,  0.832475223333334 ]
    mass: 107.868200
    reduced_to: 61
  - symbol: Ag # 71
    coordinates: [  0.320122239999998,  0.671676310000000,  0.832475223333334 ]
    mass: 107.868200
    reduced_to: 61
  - symbol: Ag # 72
    coordinates: [  0.820122239999998,  0.671676310000000,  0.832475223333334 ]
    mass: 107.868200
    reduced_to: 61
  - symbol: Ag # 73
    coordinates: [  0.429876559999997,  0.421674945000003,  0.223079996666670 ]
    mass: 107.868200
    reduced_to: 73
  - symbol: Ag # 74
    coordinates: [  0.929876559999997,  0.421674945000003,  0.223079996666670 ]
    mass: 107.868200
    reduced_to: 73
  - symbol: Ag # 75
    coordinates: [  0.429876559999997,  0.921674945000003,  0.223079996666670 ]
    mass: 107.868200
    reduced_to: 73
  - symbol: Ag # 76
    coordinates: [  0.929876559999997,  0.921674945000003,  0.223079996666670 ]
    mass: 107.868200
    reduced_to: 73
  - symbol: Ag # 77
    coordinates: [  0.429876559999997,  0.421674945000003,  0.556413330000003 ]
    mass: 107.868200
    reduced_to: 73
  - symbol: Ag # 78
    coordinates: [  0.929876559999997,  0.421674945000003,  0.556413330000003 ]
    mass: 107.868200
    reduced_to: 73
  - symbol: Ag # 79
    coordinates: [  0.429876559999997,  0.921674945000003,  0.556413330000003 ]
    mass: 107.868200
    reduced_to: 73
  - symbol: Ag # 80
    coordinates: [  0.929876559999997,  0.921674945000003,  0.556413330000003 ]
    mass: 107.868200
    reduced_to: 73
  - symbol: Ag # 81
    coordinates: [  0.429876559999997,  0.421674945000003,  0.889746663333336 ]
    mass: 107.868200
    reduced_to: 73
  - symbol: Ag # 82
    coordinates: [  0.929876559999997,  0.421674945000003,  0.889746663333336 ]
    mass: 107.868200
    reduced_to: 73
  - symbol: Ag # 83
    coordinates: [  0.429876559999997,  0.921674945000003,  0.889746663333336 ]
    mass: 107.868200
    reduced_to: 73
  - symbol: Ag # 84
    coordinates: [  0.929876559999997,  0.921674945000003,  0.889746663333336 ]
    mass: 107.868200
    reduced_to: 73
  - symbol: Ag # 85
    coordinates: [  0.070123440000000,  0.078325054999997,  0.223079996666670 ]
    mass: 107.868200
    reduced_to: 85
  - symbol: Ag # 86
    coordinates: [  0.570123440000000,  0.078325054999997,  0.223079996666670 ]
    mass: 107.868200
    reduced_to: 85
  - symbol: Ag # 87
    coordinates: [  0.070123440000000,  0.578325054999997,  0.223079996666670 ]
    mass: 107.868200
    reduced_to: 85
  - symbol: Ag # 88
    coordinates: [  0.570123440000000,  0.578325054999997,  0.223079996666670 ]
    mass: 107.868200
    reduced_to: 85
  - symbol: Ag # 89
    coordinates: [  0.070123440000000,  0.078325054999997,  0.556413330000003 ]
    mass: 107.868200
    reduced_to: 85
  - symbol: Ag # 90
    coordinates: [  0.570123440000000,  0.078325054999997,  0.556413330000003 ]
    mass: 107.868200
    reduced_to: 85
  - symbol: Ag # 91
    coordinates: [  0.070123440000000,  0.578325054999997,  0.556413330000003 ]
    mass: 107.868200
    reduced_to: 85
  - symbol: Ag # 92
    coordinates: [  0.570123440000000,  0.578325054999997,  0.556413330000003 ]
    mass: 107.868200
    reduced_to: 85
  - symbol: Ag # 93
    coordinates: [  0.070123440000000,  0.078325054999997,  0.889746663333336 ]
    mass: 107.868200
    reduced_to: 85
  - symbol: Ag # 94
    coordinates: [  0.570123440000000,  0.078325054999997,  0.889746663333336 ]
    mass: 107.868200
    reduced_to: 85
  - symbol: Ag # 95
    coordinates: [  0.070123440000000,  0.578325054999997,  0.889746663333336 ]
    mass: 107.868200
    reduced_to: 85
  - symbol: Ag # 96
    coordinates: [  0.570123440000000,  0.578325054999997,  0.889746663333336 ]
    mass: 107.868200
    reduced_to: 85
  - symbol: Se # 97
    coordinates: [  0.000000000000000,  0.000000000000000,  0.054793650000000 ]
    mass: 78.960000
    reduced_to: 97
  - symbol: Se # 98
    coordinates: [  0.500000000000000,  0.000000000000000,  0.054793650000000 ]
    mass: 78.960000
    reduced_to: 97
  - symbol: Se # 99
    coordinates: [  0.000000000000000,  0.500000000000000,  0.054793650000000 ]
    mass: 78.960000
    reduced_to: 97
  - symbol: Se # 100
    coordinates: [  0.500000000000000,  0.500000000000000,  0.054793650000000 ]
    mass: 78.960000
    reduced_to: 97
  - symbol: Se # 101
    coordinates: [  0.000000000000000,  0.000000000000000,  0.388126983333333 ]
    mass: 78.960000
    reduced_to: 97
  - symbol: Se # 102
    coordinates: [  0.500000000000000,  0.000000000000000,  0.388126983333333 ]
    mass: 78.960000
    reduced_to: 97
  - symbol: Se # 103
    coordinates: [  0.000000000000000,  0.500000000000000,  0.388126983333333 ]
    mass: 78.960000
    reduced_to: 97
  - symbol: Se # 104
    coordinates: [  0.500000000000000,  0.500000000000000,  0.388126983333333 ]
    mass: 78.960000
    reduced_to: 97
  - symbol: Se # 105
    coordinates: [  0.000000000000000,  0.000000000000000,  0.721460316666667 ]
    mass: 78.960000
    reduced_to: 97
  - symbol: Se # 106
    coordinates: [  0.500000000000000,  0.000000000000000,  0.721460316666667 ]
    mass: 78.960000
    reduced_to: 97
  - symbol: Se # 107
    coordinates: [  0.000000000000000,  0.500000000000000,  0.721460316666667 ]
    mass: 78.960000
    reduced_to: 97
  - symbol: Se # 108
    coordinates: [  0.500000000000000,  0.500000000000000,  0.721460316666667 ]
    mass: 78.960000
    reduced_to: 97
  - symbol: Se # 109
    coordinates: [  0.250000000000000,  1.000000000000000,  0.221452060000003 ]
    mass: 78.960000
    reduced_to: 109
  - symbol: Se # 110
    coordinates: [  0.750000000000000,  1.000000000000000,  0.221452060000003 ]
    mass: 78.960000
    reduced_to: 109
  - symbol: Se # 111
    coordinates: [  0.250000000000000,  0.500000000000000,  0.221452060000003 ]
    mass: 78.960000
    reduced_to: 109
  - symbol: Se # 112
    coordinates: [  0.750000000000000,  0.500000000000000,  0.221452060000003 ]
    mass: 78.960000
    reduced_to: 109
  - symbol: Se # 113
    coordinates: [  0.250000000000000,  1.000000000000000,  0.554785393333337 ]
    mass: 78.960000
    reduced_to: 109
  - symbol: Se # 114
    coordinates: [  0.750000000000000,  1.000000000000000,  0.554785393333337 ]
    mass: 78.960000
    reduced_to: 109
  - symbol: Se # 115
    coordinates: [  0.250000000000000,  0.500000000000000,  0.554785393333337 ]
    mass: 78.960000
    reduced_to: 109
  - symbol: Se # 116
    coordinates: [  0.750000000000000,  0.500000000000000,  0.554785393333337 ]
    mass: 78.960000
    reduced_to: 109
  - symbol: Se # 117
    coordinates: [  0.250000000000000,  1.000000000000000,  0.888118726666670 ]
    mass: 78.960000
    reduced_to: 109
  - symbol: Se # 118
    coordinates: [  0.750000000000000,  1.000000000000000,  0.888118726666670 ]
    mass: 78.960000
    reduced_to: 109
  - symbol: Se # 119
    coordinates: [  0.250000000000000,  0.500000000000000,  0.888118726666670 ]
    mass: 78.960000
    reduced_to: 109
  - symbol: Se # 120
    coordinates: [  0.750000000000000,  0.500000000000000,  0.888118726666670 ]
    mass: 78.960000
    reduced_to: 109
  - symbol: Se # 121
    coordinates: [  0.000000000000000,  0.250000000000000,  0.167437686666664 ]
    mass: 78.960000
    reduced_to: 121
  - symbol: Se # 122
    coordinates: [  0.500000000000000,  0.250000000000000,  0.167437686666664 ]
    mass: 78.960000
    reduced_to: 121
  - symbol: Se # 123
    coordinates: [  0.000000000000000,  0.750000000000000,  0.167437686666664 ]
    mass: 78.960000
    reduced_to: 121
  - symbol: Se # 124
    coordinates: [  0.500000000000000,  0.750000000000000,  0.167437686666664 ]
    mass: 78.960000
    reduced_to: 121
  - symbol: Se # 125
    coordinates: [  0.000000000000000,  0.250000000000000,  0.500771019999997 ]
    mass: 78.960000
    reduced_to: 121
  - symbol: Se # 126
    coordinates: [  0.500000000000000,  0.250000000000000,  0.500771019999997 ]
    mass: 78.960000
    reduced_to: 121
  - symbol: Se # 127
    coordinates: [  0.000000000000000,  0.750000000000000,  0.500771019999997 ]
    mass: 78.960000
    reduced_to: 121
  - symbol: Se # 128
    coordinates: [  0.500000000000000,  0.750000000000000,  0.500771019999997 ]
    mass: 78.960000
    reduced_to: 121
  - symbol: Se # 129
    coordinates: [  0.000000000000000,  0.250000000000000,  0.834104353333331 ]
    mass: 78.960000
    reduced_to: 121
  - symbol: Se # 130
    coordinates: [  0.500000000000000,  0.250000000000000,  0.834104353333331 ]
    mass: 78.960000
    reduced_to: 121
  - symbol: Se # 131
    coordinates: [  0.000000000000000,  0.750000000000000,  0.834104353333331 ]
    mass: 78.960000
    reduced_to: 121
  - symbol: Se # 132
    coordinates: [  0.500000000000000,  0.750000000000000,  0.834104353333331 ]
    mass: 78.960000
    reduced_to: 121
  - symbol: Se # 133
    coordinates: [  0.250000000000000,  0.250000000000000,  0.000763320000000 ]
    mass: 78.960000
    reduced_to: 133
  - symbol: Se # 134
    coordinates: [  0.750000000000000,  0.250000000000000,  0.000763320000000 ]
    mass: 78.960000
    reduced_to: 133
  - symbol: Se # 135
    coordinates: [  0.250000000000000,  0.750000000000000,  0.000763320000000 ]
    mass: 78.960000
    reduced_to: 133
  - symbol: Se # 136
    coordinates: [  0.750000000000000,  0.750000000000000,  0.000763320000000 ]
    mass: 78.960000
    reduced_to: 133
  - symbol: Se # 137
    coordinates: [  0.250000000000000,  0.250000000000000,  0.334096653333333 ]
    mass: 78.960000
    reduced_to: 133
  - symbol: Se # 138
    coordinates: [  0.750000000000000,  0.250000000000000,  0.334096653333333 ]
    mass: 78.960000
    reduced_to: 133
  - symbol: Se # 139
    coordinates: [  0.250000000000000,  0.750000000000000,  0.334096653333333 ]
    mass: 78.960000
    reduced_to: 133
  - symbol: Se # 140
    coordinates: [  0.750000000000000,  0.750000000000000,  0.334096653333333 ]
    mass: 78.960000
    reduced_to: 133
  - symbol: Se # 141
    coordinates: [  0.250000000000000,  0.250000000000000,  0.667429986666667 ]
    mass: 78.960000
    reduced_to: 133
  - symbol: Se # 142
    coordinates: [  0.750000000000000,  0.250000000000000,  0.667429986666667 ]
    mass: 78.960000
    reduced_to: 133
  - symbol: Se # 143
    coordinates: [  0.250000000000000,  0.750000000000000,  0.667429986666667 ]
    mass: 78.960000
    reduced_to: 133
  - symbol: Se # 144
    coordinates: [  0.750000000000000,  0.750000000000000,  0.667429986666667 ]
    mass: 78.960000
    reduced_to: 133

born_effective_charge:
- # 1 (Ag)
  - [  1.220061410000000, -0.283132800833333, -0.114737405000000 ]
  - [ -0.130926714166667,  1.491592995833333, -0.138548655000000 ]
  - [ -0.001885085000000,  0.093130090000000,  1.479613969166667 ]
- # 2 (Ag)
  - [  1.220061410000000, -0.283132800833333,  0.114737405000000 ]
  - [ -0.130926714166667,  1.491592995833333,  0.138548655000000 ]
  - [  0.001885085000000, -0.093130090000000,  1.479613969166667 ]
- # 3 (Ag)
  - [  1.212373000000000,  0.338388339166667, -0.104977445000000 ]
  - [  0.131274795833333,  1.492293280833333,  0.139854640000000 ]
  - [ -0.004393635000000, -0.091973190000000,  1.478680044166667 ]
- # 4 (Ag)
  - [  1.212373000000000,  0.338388339166667,  0.104977445000000 ]
  - [  0.131274795833333,  1.492293280833333, -0.139854640000000 ]
  - [  0.004393635000000,  0.091973190000000,  1.478680044166667 ]
- # 5 (Ag)
  - [  1.219836435000000,  0.283112994166667, -0.115050605000000 ]
  - [  0.130580140833333,  1.492272690833333,  0.138618615000000 ]
  - [ -0.002012630000000, -0.093264945000000,  1.479794069166667 ]
- # 6 (Ag)
  - [  1.219836435000000,  0.283112994166667,  0.115050605000000 ]
  - [  0.130580140833333,  1.492272690833333, -0.138618615000000 ]
  - [  0.002012630000000,  0.093264945000000,  1.479794069166667 ]
- # 7 (Ag)
  - [  1.212306220000000, -0.338528060833333,  0.105202180000000 ]
  - [ -0.131370799166667,  1.492749685833333,  0.139958055000000 ]
  - [  0.004545245000000, -0.092018705000000,  1.478979819166667 ]
- # 8 (Ag)
  - [  1.212306220000000, -0.338528060833333, -0.105202180000000 ]
  - [ -0.131370799166667,  1.492749685833333, -0.139958055000000 ]
  - [ -0.004545245000000,  0.092018705000000,  1.478979819166667 ]
- # 9 (Se)
  - [ -2.465317700000000,  0.022571219166667,  0.000000000000000 ]
  - [  0.386640080833333, -2.983283289166667,  0.000000000000000 ]
  - [  0.000000000000000,  0.000000000000000, -2.959393260833334 ]
- # 10 (Se)
  - [ -2.464067610000000, -0.021702730833333,  0.000000000000000 ]
  - [ -0.385607869166667, -2.984808179166667,  0.000000000000000 ]
  - [  0.000000000000000,  0.000000000000000, -2.959596960833333 ]
- # 11 (Se)
  - [ -2.399392030000000,  0.135172809166667,  0.000000000000000 ]
  - [  0.382099040833333, -2.985130239166667,  0.000000000000000 ]
  - [  0.000000000000000,  0.000000000000000, -2.957512050833333 ]
- # 12 (Se)
  - [ -2.400376790000000, -0.135722240833333,  0.000000000000000 ]
  - [ -0.382246099166667, -2.984595599166667,  0.000000000000000 ]
  - [  0.000000000000000,  0.000000000000000, -2.957633530833333 ]

dielectric_constant:
  - [ 59.204895880000002,  0.006899090000000,  0.000000000000000 ]
  - [  0.005956650000000, 21.689638450000000,  0.000000000000000 ]
  - [  0.000000000000000,  0.000000000000000, 22.668872250000000 ]

displacements:
- atom:    1
  displacement:
    [   0.0099999999506871,  0.0000009931054020,  0.0000000000000000 ]
  forces:
  - [  -0.0327150500000000,  0.0108876500000000,  0.0020536500000000 ]
  - [   0.0001783100000000,  0.0001344100000000, -0.0000429800000000 ]
  - [  -0.0000483100000000,  0.0001161300000000, -0.0000950200000000 ]
  - [   0.0000168500000000,  0.0000095800000000, -0.0000147900000000 ]
  - [  -0.0003908200000000, -0.0002375000000000,  0.0000908600000000 ]
  - [   0.0001363400000000,  0.0001136900000000, -0.0001761600000000 ]
  - [  -0.0000530500000000,  0.0001122600000000, -0.0000249400000000 ]
  - [   0.0000054600000000,  0.0000764800000000, -0.0000425000000000 ]
  - [  -0.0003906500000000, -0.0002597500000000, -0.0002077900000000 ]
  - [   0.0001362900000000,  0.0001269300000000,  0.0000675900000000 ]
  - [  -0.0000529000000000,  0.0001583100000000, -0.0000779800000000 ]
  - [   0.0000054200000000,  0.0000695700000000, -0.0000207700000000 ]
  - [   0.0024991000000000, -0.0006682900000000,  0.0000788300000000 ]
  - [   0.0049607500000000,  0.0060676100000000,  0.0002030400000000 ]
  - [   0.0000397700000000, -0.0000496400000000,  0.0000022900000000 ]
  - [   0.0002893200000000, -0.0004169600000000, -0.0001996100000000 ]
  - [   0.0001062200000000, -0.0000728700000000, -0.0001355100000000 ]
  - [   0.0005209700000000,  0.0004138300000000,  0.0006294700000000 ]
  - [   0.0000325800000000, -0.0000603400000000, -0.0000239400000000 ]
  - [   0.0000062700000000, -0.0000316700000000, -0.0000358700000000 ]
  - [   0.0001061700000000, -0.0000838400000000,  0.0000513500000000 ]
  - [   0.0005200800000000,  0.0004766200000000, -0.0007699000000000 ]
  - [   0.0000324600000000, -0.0000584400000000, -0.0000246300000000 ]
  - [   0.0000061500000000, -0.0000885000000000, -0.0000278600000000 ]
  - [  -0.0000746100000000,  0.0000120700000000,  0.0000656700000000 ]
  - [   0.0000830500000000,  0.0000508100000000,  0.0000658700000000 ]
  - [  -0.0000755800000000,  0.0000439600000000,  0.0001187300000000 ]
  - [   0.0000831200000000, -0.0000070100000000,  0.0000149900000000 ]
  - [  -0.0001182700000000, -0.0008559600000000, -0.0002867900000000 ]
  - [   0.0001381400000000,  0.0000456900000000,  0.0000134500000000 ]