 144 144   0   0
  0.1948916E+02  0.1401040E-08  0.1376691E-08  0.1455019E-08  0.5000000E-15
  1.000000000000000E-004
  CAR 
 unknown system                          
     13.06134553     -8.44127624  301      6.26447525      1.00000000
     -8.441  0.0000E+00  0.0000E+00
     -8.370  0.0000E+00  0.0000E+00
     -8.298  0.0000E+00  0.0000E+00
     -8.226  0.0000E+00  0.0000E+00
     -8.155  0.0000E+00  0.0000E+00
     -8.083  0.0000E+00  0.0000E+00
     -8.011  0.0000E+00  0.0000E+00
     -7.940  0.0000E+00  0.0000E+00
     -7.868  0.0000E+00  0.0000E+00
     -7.796  0.0000E+00  0.0000E+00
     -7.725  0.2933E-12  0.2102E-13
     -7.653  0.1580E-06  0.1132E-07
     -7.581  0.1586E-02  0.1137E-03
     -7.509  0.3517E+00  0.2532E-01
     -7.438  0.4313E+01  0.3345E+00
     -7.366  0.1911E+02  0.1704E+01
     -7.294  0.3786E+02  0.4418E+01
     -7.223  0.3949E+02  0.7249E+01
     -7.151  0.6438E+02  0.1186E+02
     -7.079  0.1004E+03  0.1906E+02
     -7.008  0.1265E+03  0.2813E+02
     -6.936  0.2083E+03  0.4306E+02
     -6.864  0.2226E+03  0.5902E+02
     -6.793  0.2575E+03  0.7747E+02
     -6.721  0.2069E+03  0.9231E+02
     -6.649  0.4930E+02  0.9584E+02
     -6.578  0.2205E+01  0.9600E+02
     -6.506  0.7885E-02  0.9600E+02
     -6.434  0.9843E-06  0.9600E+02
     -6.363  0.2878E-11  0.9600E+02
     -6.291  0.0000E+00  0.9600E+02
     -6.219  0.0000E+00  0.9600E+02
     -6.148  0.0000E+00  0.9600E+02
     -6.076  0.0000E+00  0.9600E+02
     -6.004  0.0000E+00  0.9600E+02
     -5.933  0.0000E+00  0.9600E+02
     -5.861  0.0000E+00  0.9600E+02
     -5.789  0.0000E+00  0.9600E+02
     -5.718  0.0000E+00  0.9600E+02
     -5.646  0.0000E+00  0.9600E+02
     -5.574  0.0000E+00  0.9600E+02
     -5.503  0.0000E+00  0.9600E+02
     -5.431  0.0000E+00  0.9600E+02
     -5.359  0.0000E+00  0.9600E+02
     -5.288  0.0000E+00  0.9600E+02
     -5.216  0.0000E+00  0.9600E+02
     -5.144  0.0000E+00  0.9600E+02
     -5.073  0.0000E+00  0.9600E+02
     -5.001  0.0000E+00  0.9600E+02
     -4.929  0.0000E+00  0.9600E+02
     -4.858  0.0000E+00  0.9600E+02
     -4.786  0.0000E+00  0.9600E+02
     -4.714  0.0000E+00  0.9600E+02
     -4.642  0.0000E+00  0.9600E+02
     -4.571  0.0000E+00  0.9600E+02
     -4.499  0.0000E+00  0.9600E+02
     -4.427  0.0000E+00  0.9600E+02
     -4.356  0.0000E+00  0.9600E+02
     -4.284  0.0000E+00  0.9600E+02
     -4.212  0.0000E+00  0.9600E+02
     -4.141  0.0000E+00  0.9600E+02
     -4.069  0.0000E+00  0.9600E+02
     -3.997  0.0000E+00  0.9600E+02
     -3.926  0.0000E+00  0.9600E+02
     -3.854  0.0000E+00  0.9600E+02
     -3.782  0.0000E+00  0.9600E+02
     -3.711  0.0000E+00  0.9600E+02
     -3.639  0.0000E+00  0.9600E+02
     -3.567  0.0000E+00  0.9600E+02
     -3.496  0.0000E+00  0.9600E+02
     -3.424  0.0000E+00  0.9600E+02
     -3.352  0.0000E+00  0.9600E+02
     -3.281  0.0000E+00  0.9600E+02
     -3.209  0.0000E+00  0.9600E+02
     -3.137  0.0000E+00  0.9600E+02
     -3.066  0.0000E+00  0.9600E+02
     -2.994  0.0000E+00  0.9600E+02
     -2.922  0.0000E+00  0.9600E+02
     -2.851  0.0000E+00  0.9600E+02
     -2.779  0.0000E+00  0.9600E+02
     -2.707  0.0000E+00  0.9600E+02
     -2.636  0.0000E+00  0.9600E+02
     -2.564  0.0000E+00  0.9600E+02
     -2.492  0.0000E+00  0.9600E+02
     -2.421  0.0000E+00  0.9600E+02
     -2.349  0.0000E+00  0.9600E+02
     -2.277  0.0000E+00  0.9600E+02
     -2.206  0.0000E+00  0.9600E+02
     -2.134  0.0000E+00  0.9600E+02
     -2.062  0.0000E+00  0.9600E+02
     -1.990  0.0000E+00  0.9600E+02
     -1.919  0.0000E+00  0.9600E+02
     -1.847  0.0000E+00  0.9600E+02
     -1.775  0.0000E+00  0.9600E+02
     -1.704  0.0000E+00  0.9600E+02
     -1.632  0.0000E+00  0.9600E+02
     -1.560  0.0000E+00  0.9600E+02
     -1.489  0.0000E+00  0.9600E+02
     -1.417  0.0000E+00  0.9600E+02
     -1.345  0.0000E+00  0.9600E+02
     -1.274  0.0000E+00  0.9600E+02
     -1.202  0.0000E+00  0.9600E+02
     -1.130  0.0000E+00  0.9600E+02
     -1.059  0.0000E+00  0.9600E+02
     -0.987  0.0000E+00  0.9600E+02
     -0.915  0.0000E+00  0.9600E+02
     -0.844  0.0000E+00  0.9600E+02
     -0.772  0.0000E+00  0.9600E+02
     -0.700  0.0000E+00  0.9600E+02
     -0.629  0.2323E-14  0.9600E+02
     -0.557  0.4199E-08  0.9600E+02
     -0.485  0.1419E-03  0.9600E+02
     -0.414  0.9707E-01  0.9601E+02
     -0.342  0.1806E+01  0.9614E+02
     -0.270  0.1856E+01  0.9627E+02
     -0.199  0.8587E+01  0.9688E+02
     -0.127  0.1537E+02  0.9799E+02
     -0.055  0.2461E+02  0.9975E+02
      0.016  0.5197E+02  0.1035E+03
      0.088  0.1044E+03  0.1110E+03
      0.160  0.1893E+03  0.1245E+03
      0.231  0.2072E+03  0.1394E+03
      0.303  0.2739E+03  0.1590E+03
      0.375  0.1914E+03  0.1727E+03
      0.446  0.1242E+03  0.1816E+03
      0.518  0.1411E+03  0.1917E+03
      0.590  0.1238E+03  0.2006E+03
      0.662  0.1688E+03  0.2127E+03
      0.733  0.2458E+03  0.2303E+03
      0.805  0.2292E+03  0.2468E+03
      0.877  0.2935E+03  0.2678E+03
      0.948  0.2823E+03  0.2880E+03
      1.020  0.1445E+03  0.2984E+03
      1.092  0.1860E+03  0.3117E+03
      1.163  0.2272E+03  0.3280E+03
      1.235  0.2306E+03  0.3445E+03
      1.307  0.2983E+03  0.3659E+03
      1.378  0.3087E+03  0.3880E+03
      1.450  0.3920E+03  0.4161E+03
      1.522  0.3548E+03  0.4416E+03
      1.593  0.3735E+03  0.4683E+03
      1.665  0.3654E+03  0.4945E+03
      1.737  0.3924E+03  0.5227E+03
      1.808  0.3712E+03  0.5493E+03
      1.880  0.3584E+03  0.5750E+03
      1.952  0.3899E+03  0.6029E+03
      2.023  0.4144E+03  0.6326E+03
      2.095  0.3770E+03  0.6596E+03
      2.167  0.3617E+03  0.6856E+03
      2.238  0.3754E+03  0.7125E+03
      2.310  0.3964E+03  0.7409E+03
      2.382  0.3368E+03  0.7650E+03
      2.453  0.2958E+03  0.7862E+03
      2.525  0.3404E+03  0.8106E+03
      2.597  0.3568E+03  0.8362E+03
      2.668  0.4091E+03  0.8655E+03
      2.740  0.3724E+03  0.8922E+03
      2.812  0.3819E+03  0.9196E+03
      2.883  0.4332E+03  0.9506E+03
      2.955  0.5017E+03  0.9866E+03
      3.027  0.4937E+03  0.1022E+04
      3.098  0.3634E+03  0.1048E+04
      3.170  0.2309E+03  0.1065E+04
      3.242  0.2046E+03  0.1079E+04
      3.313  0.1695E+03  0.1091E+04
      3.385  0.1362E+03  0.1101E+04
      3.457  0.1209E+03  0.1110E+04
      3.529  0.1588E+03  0.1121E+04
      3.600  0.1611E+03  0.1133E+04
      3.672  0.9960E+02  0.1140E+04
      3.744  0.9669E+02  0.1147E+04
      3.815  0.6363E+02  0.1151E+04
      3.887  0.7347E+02  0.1157E+04
      3.959  0.7235E+02  0.1162E+04
      4.030  0.6664E+02  0.1167E+04
      4.102  0.9192E+02  0.1173E+04
      4.174  0.1059E+03  0.1181E+04
      4.245  0.1121E+03  0.1189E+04
      4.317  0.7420E+02  0.1194E+04
      4.389  0.7314E+02  0.1199E+04
      4.460  0.6561E+02  0.1204E+04
      4.532  0.9310E+02  0.1211E+04
      4.604  0.9318E+02  0.1217E+04
      4.675  0.1031E+03  0.1225E+04
      4.747  0.1421E+03  0.1235E+04
      4.819  0.1352E+03  0.1245E+04
      4.890  0.6996E+02  0.1250E+04
      4.962  0.5392E+02  0.1254E+04
      5.034  0.5527E+02  0.1258E+04
      5.105  0.8993E+02  0.1264E+04
      5.177  0.1456E+03  0.1274E+04
      5.249  0.1051E+03  0.1282E+04
      5.320  0.6204E+02  0.1286E+04
      5.392  0.6092E+02  0.1291E+04
      5.464  0.6830E+02  0.1296E+04
      5.535  0.7327E+02  0.1301E+04
      5.607  0.7689E+02  0.1306E+04
      5.679  0.1137E+03  0.1315E+04
      5.750  0.1294E+03  0.1324E+04
      5.822  0.7114E+02  0.1329E+04
      5.894  0.6466E+02  0.1334E+04
      5.965  0.5707E+02  0.1338E+04
      6.037  0.2952E+02  0.1340E+04
      6.109  0.1867E+02  0.1341E+04
      6.181  0.2161E+02  0.1343E+04
      6.252  0.1656E+02  0.1344E+04
      6.324  0.8414E+01  0.1344E+04
      6.396  0.7860E+00  0.1344E+04
      6.467  0.1488E+00  0.1345E+04
      6.539  0.2007E+01  0.1345E+04
      6.611  0.1724E+01  0.1345E+04
      6.682  0.5968E+01  0.1345E+04
      6.754  0.2389E+02  0.1347E+04
      6.826  0.2538E+02  0.1349E+04
      6.897  0.1054E+02  0.1349E+04
      6.969  0.6368E+01  0.1350E+04
      7.041  0.8904E+01  0.1351E+04
      7.112  0.4831E+01  0.1351E+04
      7.184  0.2250E+02  0.1353E+04
      7.256  0.2411E+02  0.1354E+04
      7.327  0.2769E+02  0.1356E+04
      7.399  0.3228E+02  0.1359E+04
      7.471  0.3001E+02  0.1361E+04
      7.542  0.6393E+02  0.1365E+04
      7.614  0.6849E+02  0.1370E+04
      7.686  0.2640E+02  0.1372E+04
      7.757  0.5705E+02  0.1376E+04
      7.829  0.6974E+02  0.1381E+04
      7.901  0.7307E+02  0.1386E+04
      7.972  0.7625E+02  0.1392E+04
      8.044  0.6353E+02  0.1396E+04
      8.116  0.3354E+02  0.1399E+04
      8.187  0.1782E+02  0.1400E+04
      8.259  0.7840E+01  0.1401E+04
      8.331  0.1202E+02  0.1402E+04
      8.402  0.5218E+02  0.1405E+04
      8.474  0.3207E+02  0.1408E+04
      8.546  0.3485E+02  0.1410E+04
      8.617  0.9862E+02  0.1417E+04
      8.689  0.1015E+03  0.1424E+04
      8.761  0.5772E+02  0.1429E+04
      8.832  0.5013E+02  0.1432E+04
      8.904  0.3357E+02  0.1435E+04
      8.976  0.4590E+02  0.1438E+04
      9.048  0.2911E+02  0.1440E+04
      9.119  0.2172E+02  0.1442E+04
      9.191  0.9948E+01  0.1442E+04
      9.263  0.1838E+02  0.1444E+04
      9.334  0.5513E+02  0.1447E+04
      9.406  0.4908E+02  0.1451E+04
      9.478  0.5404E+02  0.1455E+04
      9.549  0.3777E+02  0.1458E+04
      9.621  0.5155E+02  0.1461E+04
      9.693  0.5026E+02  0.1465E+04
      9.764  0.4704E+02  0.1468E+04
      9.836  0.5441E+02  0.1472E+04
      9.908  0.7543E+02  0.1478E+04
      9.979  0.5737E+02  0.1482E+04
     10.051  0.1116E+03  0.1490E+04
     10.123  0.1156E+03  0.1498E+04
     10.194  0.3890E+02  0.1501E+04
     10.266  0.3001E+02  0.1503E+04
     10.338  0.4891E+02  0.1506E+04
     10.409  0.5919E+02  0.1511E+04
     10.481  0.9076E+02  0.1517E+04
     10.553  0.1121E+03  0.1525E+04
     10.624  0.1104E+03  0.1533E+04
     10.696  0.9226E+02  0.1540E+04
     10.768  0.8001E+02  0.1545E+04
     10.839  0.1081E+03  0.1553E+04
     10.911  0.8703E+02  0.1559E+04
     10.983  0.6392E+02  0.1564E+04
     11.054  0.3343E+02  0.1566E+04
     11.126  0.5791E+02  0.1571E+04
     11.198  0.4977E+02  0.1574E+04
     11.269  0.4692E+02  0.1577E+04
     11.341  0.8347E+02  0.1583E+04
     11.413  0.5137E+02  0.1587E+04
     11.484  0.5734E+02  0.1591E+04
     11.556  0.8890E+02  0.1598E+04
     11.628  0.6632E+02  0.1602E+04
     11.700  0.4377E+02  0.1606E+04
     11.771  0.1094E+02  0.1606E+04
     11.843  0.1568E+02  0.1607E+04
     11.915  0.3692E+02  0.1610E+04
     11.986  0.1918E+02  0.1611E+04
     12.058  0.2815E+01  0.1612E+04
     12.130  0.4451E+01  0.1612E+04
     12.201  0.5240E+00  0.1612E+04
     12.273  0.2042E-02  0.1612E+04
     12.345  0.1818E-06  0.1612E+04
     12.416  0.3164E-12  0.1612E+04
     12.488  0.0000E+00  0.1612E+04
     12.560  0.0000E+00  0.1612E+04
     12.631  0.0000E+00  0.1612E+04
     12.703  0.0000E+00  0.1612E+04
     12.775  0.0000E+00  0.1612E+04
     12.846  0.0000E+00  0.1612E+04
     12.918  0.0000E+00  0.1612E+04
     12.990  0.0000E+00  0.1612E+04
     13.061  0.0000E+00  0.1612E+04
